
                                 *****************
                                 * O   R   C   A *
                                 *****************

                                            #,                                       
                                            ###                                      
                                            ####                                     
                                            #####                                    
                                            ######                                   
                                           ########,                                 
                                     ,,################,,,,,                         
                               ,,#################################,,                 
                          ,,##########################################,,             
                       ,#########################################, ''#####,          
                    ,#############################################,,   '####,        
                  ,##################################################,,,,####,       
                ,###########''''           ''''###############################       
              ,#####''   ,,,,##########,,,,          '''####'''          '####       
            ,##' ,,,,###########################,,,                        '##       
           ' ,,###''''                  '''############,,,                           
         ,,##''                                '''############,,,,        ,,,,,,###''
      ,#''                                            '''#######################'''  
     '                                                          ''''####''''         
             ,#######,   #######,   ,#######,      ##                                
            ,#'     '#,  ##    ##  ,#'     '#,    #''#        ,####,    ,#,          
            ##       ##  ##   ,#'  ##            #'  '#       #'       ,# #          
            ##       ##  #######   ##           ,######,      #####,      #          
            '#,     ,#'  ##    ##  '#,     ,#' ,#      #,     #,   #      #          
             '#######'   ##     ##  '#######'  #'      '#     '####' #    #          



                #########################################################
                #                        -***-                          #
                #          Department of theory and spectroscopy        #
                #                                                       #
                #                      Frank Neese                      #
                #                                                       #
                #     Directorship, Architecture, Infrastructure        #
                #                    SHARK, DRIVERS                     #
                #        Core code/Algorithms in most modules           #
                #                                                       #
                #        Max Planck Institute fuer Kohlenforschung      #
                #                Kaiser Wilhelm Platz 1                 #
                #                 D-45470 Muelheim/Ruhr                 #
                #                      Germany                          #
                #                                                       #
                #                  All rights reserved                  #
                #                        -***-                          #
                #########################################################


                         Program Version 6.1.1  -  RELEASE   -
                                (GIT: $487d211c$)
                          ($2025-11-21 10:33:24 +0100$)


 With contributions from (in alphabetic order):
[Max-Planck-Institut fuer Kohlenforschung]                               
  Daniel Aravena         : Magnetic Suceptibility                        
  Michael Atanasov       : Ab Initio Ligand Field Theory (pilot matlab implementation)
  Alexander A. Auer      : GIAO ZORA, VPT2 properties, NMR spectrum      
  Ute Becker             : All parallelization in ORCA, NUMFREQ, NUMCALC 
  Giovanni Bistoni       : ED, misc. LED, open-shell LED, HFLD           
  Dmytro Bykov           : pre 5.0 version of the SCF Hessian            
  Marcos Casanova-Páez   : Triplet and SCS-CIS(D). UHF-(DLPNO)-IP/EA/STEOM-CCSD. UHF-CVS-IP/STEOM-CCSD   
  Vijay G. Chilkuri      : MRCI spin determinant printing, contributions to CSF-ICE 
  Pauline Colinet        : FMM embedding                                 
  Dipayan Datta          : RHF DLPNO-CCSD density                        
  Achintya Kumar Dutta   : EOM-CC, STEOM-CC                              
  Nicolas Foglia         : Exact transition moments, OPA infrastructure, MCD improvements    
  Dmitry Ganyushin       : Spin-Orbit,Spin-Spin,Magnetic field MRCI      
  Miquel Garcia-Rates    : C-PCM and meta-GGA Hessian, CCSD/C-PCM, Gaussian charge scheme 
  Tiago L. C. Gouveia    : GS-ROHF, GS-ROCIS                             
  Yang Guo               : DLPNO-NEVPT2, F12-NEVPT2, CIM, IAO-localization        
  Andreas Hansen         : Spin unrestricted coupled pair/coupled cluster methods 
  Ingolf Harden          : AUTO-CI MPn and infrastructure                
  Benjamin Helmich-Paris : MC-RPA, TRAH-(SCF,CASSCF), AVAS, COSX integrals, SCF dyn. polar., MC-PDFT, srDFT 
  Lee Huntington         : MR-EOM, pCC                                   
  Robert Izsak           : Overlap fitted RIJCOSX, COSX-SCS-MP3, EOM     
  Riya Kayal             : Wick's Theorem for AUTO-CI, AUTO-CI UHF-CCSDT 
  Emily Kempfer          : AUTO-CI RHF CISDT and CCSDT, approximate NEVPT4
  Christian Kollmar      : KDIIS, OOCD, Brueckner-CCSD(T), CCSD density, CASPT2, CASPT2-K, improved NEVPT2 
  Axel Koslowski         : Symmetry handling                             
  Simone Kossmann        : meta-GGA functionals, TD-DFT gradient, OOMP2, (MP2 Hessian; deprecated post 5.0) 
  Lucas Lang             : DCDCAS, Hyperfine gauge corrections, ICE-SOC+SSC
  Marvin Lechner         : AUTO-CI (C++ implementation), FIC-MRCC        
  Spencer Leger          : CASSCF response                               
  Dagmar Lenk            : GEPOL surface, SMD, ORCA-2-JSON               
  Dimitrios Liakos       : Extrapolation schemes; Compound Job, Property file
  Dimitrios Manganas     : Further ROCIS development; embedding schemes. LFT, Crystal Embedding 
  Dimitrios Pantazis     : SARC Basis sets                               
  Anastasios Papadopoulos: AUTO-CI, single reference methods and gradients 
  Taras Petrenko         : pre 6.0 DFT Hessian and TD-DFT gradient,  ECA, NRVS 
  Petra Pikulova         : Analytic Raman intensities                    
  Peter Pinski           : DLPNO-MP2, DLPNO-MP2 Gradient                 
  Shashank Vittal Rao    : ES-AILFT, MagRelax                            
  Christoph Reimann      : Effective Core Potentials                     
  Marius Retegan         : Local ZFS, SOC                                
  Christoph Riplinger    : Optimizer, TS searches, QM/MM, DLPNO-CCSD(T), (RO)-DLPNO pert. Triples 
  Michael Roemelt        : Original ROCIS implementation, recursive CI coupling coefficients
  Masaaki Saitow         : Open-shell DLPNO-CCSD energy and density      
  Barbara Sandhoefer     : DKH picture change effects                    
  Yorick L. A. Schmerwitz: GMF and freeze-and-release deltaSCF, NEB S-IDPP initial path                    
  Kantharuban Sivalingam : CASSCF convergence/infrastructure, NEVPT2, NEVPT3, NEVPT4(SD), FIC-MRCI and CEPA variants
  Bernardo de Souza      : ESD, SOC TD-DFT                               
  Georgi L. Stoychev     : AutoAux, RI-MP2 NMR, DLPNO-MP2 response, X2C  
  Van Anh Tran           : RI-MP2 g-tensors                              
  Willem Van den Heuvel  : Paramagnetic NMR                              
  Zikuan Wang            : NOTCH, Electric field optimization            
  Frank Wennmohs         : Technical directorship and infrastructure     
  Hang Xu                : AUTO-CI-Response properties                   
                                                                         
[FACCTs GmbH]                                                            
  Markus Bursch, Nicolas Foglia, Miquel Garcia-Rates, Ingolf Harden, Hagen Neugebauer, Anastasios Papadopoulos, 
  Christoph Riplinger, Bernardo de Souza, Georgi L. Stoychev                                                    
                                                                 
  APM, various basis sets, CI-OPT, improved COSX, DLPNO-Multilevel,           
  DOCKER, DRACO, updates on ESD, Fragmentator, GOAT, IRC, LR-CPCM, L-BFGS, MBIS, meta-GGA TD-DFT gradient, ML-optimized integration grids, 
  MM, NACMEs, nearIR, NEB, NEB-TS, NL-DFT gradient (VV10), 2- and 3-layer-ONIOM, interface openCOSMO-RS, QMMM,   
  Crystal-QMMM, RESP, rigid body optimization, SF, symmetry and pop. for TD-DFT, various functionals, SOLVATOR                                   
                                                                         
[Other institutions]                                                     
  V. Asgeirsson          : NEB                                           
  Christoph Bannwarth    : sTDA-DFT, sTD-DFT, PBEh-3c, B97-3c, D3        
  Giovanni Bistoni       : ETS/NOCV, ADLD/ADEX, COVALED                  
  Martin Brehm           : Molecular dynamics                            
  Ronald Cardenas        : ETS/NOCV                                      
  Martina Colucci        : COVALED                                       
  Sebastian Ehlert       : rSCAN, r2SCAN, r2SCAN-3c, D4, dhf basis sets  
  Marvin Friede          : D4 for Fr, Ra, Ac-Lr                          
  Lars Goerigk           : TD-DFT with DH, B97 family of functionals     
  Stefan Grimme          : VdW corrections, initial TS optimization, DFT functionals, gCP, sTDA/sTD-DF 
  Waldemar Hujo          : DFT-NL                                        
  H. Jonsson             : NEB                                           
  Holger Kruse           : gCP                                           
  Marcel Mueller         : wB97X-3c, vDZP basis set                      
  Hagen Neugebauer       : wr2SCAN, Native XTB                           
  Gianluca Regni         : ADLD/ADEX                                     
  Tobias Risthaus        : pre 6.0 range-separated hybrid DFT and stability analysis
  Lukas Wittmann         : regularized MP2, r2SCAN double-hybrids, wr2SCAN        
                                                                         
We gratefully acknowledge several colleagues who have allowed us to      
interface, adapt or use parts of their codes:                            
  Ed Valeev, F. Pavosevic, A. Kumar             : LibInt (2-el integral package), F12 methods 
  Garnet Chan, S. Sharma, J. Yang, R. Olivares  : DMRG                   
  Ulf Ekstrom                                   : XCFun DFT Library      
  Mihaly Kallay                                 : mrcc  (arbitrary order and MRCC methods)
  Frank Weinhold                                : gennbo (NPA and NBO analysis)           
  Simon Mueller                                 : openCOSMO-RS                            
  Christopher J. Cramer and Donald G. Truhlar   : smd solvation model                     
  S Lehtola, MJT Oliveira, MAL Marques          : LibXC Library                           
  Liviu Ungur et al                             : ANISO software                          


 Your calculation uses the libint2 library for the computation of 2-el integrals
 For citations please refer to: http://libint.valeyev.net

 Your ORCA version has been built with support for libXC version: 7.0.0
 For citations please refer to: https://libxc.gitlab.io

 This ORCA versions uses:
   CBLAS   interface :  Fast vector & matrix operations
   LAPACKE interface :  Fast linear algebra routines
   SCALAPACK package :  Parallel linear algebra routines
   Shared memory     :  Shared parallel matrices
   BLAS/LAPACK       :  OpenBLAS 0.3.29  USE64BITINT DYNAMIC_ARCH NO_AFFINITY Cooperlake SINGLE_THREADED
        Core in use  :  Cooperlake
   Copyright (c) 2011-2014, The OpenBLAS Project


  ***********************************
  * Starting time: Wed Jun 24 18:24:43 2026
  * Host name:     DESKTOP-DC1WS01
  * Process ID:    127783
  * Working dir.:  /mnt/work-disk/work/moleditpy/nmr-coupling-test.res
  ***********************************


Information: The global flag for NMR shieldings has been found
             ==>> will calculate the shieldings for all atoms in the system

================================================================================

----- Orbital basis set information -----
Your calculation utilizes the basis: def2-SVP
   F. Weigend and R. Ahlrichs, Phys. Chem. Chem. Phys. 7, 3297 (2005).

----- AuxJ basis set information -----
Your calculation utilizes the auxiliary basis: def2/J
   H-Rn: F. Weigend, Phys. Chem. Chem. Phys. 8, 1057 (2006).
   Fr-Lr: K. Eichkorn, F. Weigend, O. Treutler, R. Ahlrichs; Theor. Chem. Acc. 97, 119 (1997).

================================================================================
                                        WARNINGS
                       Please study these warnings very carefully!
================================================================================


================================================================================
                                       INPUT FILE
================================================================================
NAME = nmr-coupling-test.inp
|  1> ! BP86 def2-SVP def2/J NMR
|  2> 
|  3> * xyz 0 1
|  4> C   0.0000   0.0000   0.0000
|  5> H   0.6276   0.6276   0.6276
|  6> H  -0.6276  -0.6276   0.6276
|  7> H  -0.6276   0.6276  -0.6276
|  8> H   0.6276  -0.6276  -0.6276
|  9> *
| 10> 
| 11> %eprnmr
| 12>   Nuclei = all C { ssall }
| 13>   Nuclei = all H { ssall }
| 14> endd                         ****END OF INPUT****
================================================================================

                       ****************************
                       * Single Point Calculation *
                       ****************************

---------------------------------
CARTESIAN COORDINATES (ANGSTROEM)
---------------------------------
  C      0.000000    0.000000    0.000000
  H      0.627600    0.627600    0.627600
  H     -0.627600   -0.627600    0.627600
  H     -0.627600    0.627600   -0.627600
  H      0.627600   -0.627600   -0.627600

----------------------------
CARTESIAN COORDINATES (A.U.)
----------------------------
  NO LB      ZA    FRAG     MASS         X           Y           Z
   0 C     6.0000    0    12.011    0.000000    0.000000    0.000000
   1 H     1.0000    0     1.008    1.185992    1.185992    1.185992
   2 H     1.0000    0     1.008   -1.185992   -1.185992    1.185992
   3 H     1.0000    0     1.008   -1.185992    1.185992   -1.185992
   4 H     1.0000    0     1.008    1.185992   -1.185992   -1.185992

--------------------------------
INTERNAL COORDINATES (ANGSTROEM)
--------------------------------
 C      0   0   0     0.000000000000     0.00000000     0.00000000
 H      1   0   0     1.087035086830     0.00000000     0.00000000
 H      1   2   0     1.087035086830   109.47122063     0.00000000
 H      1   2   3     1.087035086830   109.47122063   120.00000000
 H      1   2   3     1.087035086830   109.47122063   240.00000000

---------------------------
INTERNAL COORDINATES (A.U.)
---------------------------
 C      0   0   0     0.000000000000     0.00000000     0.00000000
 H      1   0   0     2.054198612072     0.00000000     0.00000000
 H      1   2   0     2.054198612072   109.47122063     0.00000000
 H      1   2   3     2.054198612072   109.47122063   120.00000000
 H      1   2   3     2.054198612072   109.47122063   240.00000000

---------------------
BASIS SET INFORMATION
---------------------
There are 2 groups of distinct atoms

 Group   1 Type C   : 7s4p1d contracted to 3s2p1d pattern {511/31/1}
 Group   2 Type H   : 4s1p contracted to 2s1p pattern {31/1}

Atom   0C    basis set group =>   1
Atom   1H    basis set group =>   2
Atom   2H    basis set group =>   2
Atom   3H    basis set group =>   2
Atom   4H    basis set group =>   2
---------------------------------
AUXILIARY/J BASIS SET INFORMATION
---------------------------------
There are 2 groups of distinct atoms

 Group   1 Type C   : 12s5p4d2f1g contracted to 6s4p3d1f1g pattern {711111/2111/211/2/1}
 Group   2 Type H   : 5s2p1d contracted to 3s1p1d pattern {311/2/1}

Atom   0C    basis set group =>   1
Atom   1H    basis set group =>   2
Atom   2H    basis set group =>   2
Atom   3H    basis set group =>   2
Atom   4H    basis set group =>   2
------------------------------------------------------------------------------
                             ORCA STARTUP CALCULATIONS
                           -- RI-GTO INTEGRALS CHOSEN --
------------------------------------------------------------------------------
------------------------------------------------------------------------------
                   ___                                                        
                  /   \      - P O W E R E D   B Y -                         
                 /     \                                                     
                 |  |  |   _    _      __       _____    __    __             
                 |  |  |  | |  | |    /  \     |  _  \  |  |  /  |          
                  \  \/   | |  | |   /    \    | | | |  |  | /  /          
                 / \  \   | |__| |  /  /\  \   | |_| |  |  |/  /          
                |  |  |   |  __  | /  /__\  \  |    /   |      \           
                |  |  |   | |  | | |   __   |  |    \   |  |\   \          
                \     /   | |  | | |  |  |  |  | |\  \  |  | \   \       
                 \___/    |_|  |_| |__|  |__|  |_| \__\ |__|  \__/        
                                                                              
                      - O R C A' S   B I G   F R I E N D -                    
                                      &                                       
                       - I N T E G R A L  F E E D E R -                       
                                                                              
 v1 FN, 2020, v2 2021, v3 2022-2024                                           
------------------------------------------------------------------------------


----------------------
SHARK INTEGRAL PACKAGE
----------------------

Number of atoms                             ...      5
Number of basis functions                   ...     34
Number of shells                            ...     18
Maximum angular momentum                    ...      2
Integral batch strategy                     ... SHARK/LIBINT Hybrid
RI-J (if used) integral strategy            ... SPLIT-RIJ (Revised 2003 algorithm where possible)
Printlevel                                  ...      1
Contraction scheme used                     ... SEGMENTED contraction
Prescreening option                         ... SCHWARTZ
   Thresh                                   ... 1.000e-10
   Tcut                                     ... 1.000e-11
   Tpresel                                  ... 1.000e-11 
Coulomb Range Separation                    ... NOT USED
Exchange Range Separation                   ... NOT USED
Multipole approximations                    ... NOT USED
Finite Nucleus Model                        ... NOT USED
CABS basis                                  ... NOT available
Auxiliary Coulomb fitting basis             ... AVAILABLE
   # of basis functions in Aux-J            ...     93
   # of shells in Aux-J                     ...     35
   Maximum angular momentum in Aux-J        ...      4
Auxiliary J/K fitting basis                 ... NOT available
Auxiliary Correlation fitting basis         ... NOT available
Auxiliary 'external' fitting basis          ... NOT available

Checking pre-screening integrals            ... done (  0.0 sec) Dimension = 18
   => SHARK Basis and OBASIS are compatible. Storing Pre-screening
Shell pair information
Shell pair cut-off parameter TPreSel        ...   1.0e-11
Total number of shell pairs                 ...       171
Shell pairs after pre-screening             ...       171
Total number of primitive shell pairs       ...       553
Primitive shell pairs kept                  ...       535
          la=0 lb=0:     66 shell pairs
          la=1 lb=0:     66 shell pairs
          la=1 lb=1:     21 shell pairs
          la=2 lb=0:     11 shell pairs
          la=2 lb=1:      6 shell pairs
          la=2 lb=2:      1 shell pairs

Checking whether 4 symmetric matrices of dimension 34 fit in memory
:Max Core in MB      =   4096.00
 MB in use           =      3.37
 MB left             =   4092.63
 MB needed           =      0.02
 Data fit in memory  = YES
Calculating RI/J V-Matrix + Cholesky decomp.... done (  0.0 sec)
Calculating Nuclear repulsion               ... done (  0.0 sec) ENN=     13.472034520681 Eh

Diagonalization of the overlap matrix:
Smallest eigenvalue                        ... 1.379e-02
Time for diagonalization                   ...    0.001 sec
Threshold for overlap eigenvalues          ... 1.000e-07
Number of eigenvalues below threshold      ... 0
Time for construction of square roots      ...    0.000 sec
Total time needed                          ...    0.001 sec

-------------------
DFT GRID GENERATION
-------------------

General Integration Accuracy     IntAcc      ... 4.388
Radial Grid Type                 RadialGrid  ... OptM3 with GC (2021)
Angular Grid (max. ang.)         AngularGrid ... 4 (Lebedev-302)
Angular grid pruning method      GridPruning ... 4 (adaptive)
Weight generation scheme         WeightScheme... mBecke (2022)
Basis function cutoff            BFCut       ... 1.0000e-10
Integration weight cutoff        WCut        ... 1.0000e-14
Partially contracted basis set               ... off
Rotationally invariant grid construction     ... off
Angular grids for H and He will be reduced by one unit

Total number of grid points                  ...    19244
Total number of batches                      ...      303
Average number of points per batch           ...       63
Average number of grid points per atom       ...     3849
Grids setup in   0.0 sec
Initializing property integral containers    ... done (  0.0 sec)

SHARK setup successfully completed in   0.1 seconds

Maximum memory used throughout the entire STARTUP-calculation: 9.3 MB
-------------------------------------------------------------------------------
                                 ORCA GUESS
                   Start orbitals & Density for SCF / CASSCF
-------------------------------------------------------------------------------

------------
SCF SETTINGS
------------
Hamiltonian:
 Density Functional     Method          .... DFT(GTOs)
 Exchange Functional    Exchange        .... B88
   X-Alpha parameter    XAlpha          ....  0.666667
   Becke's b parameter  XBeta           ....  0.004200
 Correlation Functional Correlation     .... P86
 LDA part of GGA corr.  LDAOpt          .... PW91-LDA
 Gradients option       PostSCFGGA      .... off
   NL short-range parameter             ....  4.400000
 RI-approximation to the Coulomb term is turned on
   Number of AuxJ basis functions       .... 93


General Settings:
 Integral files         IntName         .... nmr-coupling-test
 Hartree-Fock type      HFTyp           .... RHF
 Total Charge           Charge          ....    0
 Multiplicity           Mult            ....    1
 Number of Electrons    NEL             ....   10
 Basis Dimension        Dim             ....   34
 Nuclear Repulsion      ENuc            ....     13.4720345207 Eh

Convergence Acceleration:
 AO-DIIS                CNVDIIS         .... on
   Start iteration      DIISMaxIt       ....    12
   Startup error        DIISStart       ....  0.200000
   # of expansion vecs  DIISMaxEq       ....     5
   Bias factor          DIISBfac        ....   1.050
   Max. coefficient     DIISMaxC        ....  10.000
 MO-DIIS                CNVKDIIS        .... off
 Trust-Rad. Augm. Hess. CNVTRAH         .... auto
   Auto Start mean grad. ratio tolernc. ....  1.125000
   Auto Start start iteration           ....    50
   Auto Start num. interpolation iter.  ....    10
   Max. Number of Micro iterations      ....    24
   Max. Number of Macro iterations      .... Maxiter - #DIIS iter
   Number of Davidson start vectors     ....     2
   Converg. threshold    (grad. norm)   ....   5.000e-05
   Grad. Scal. Fac. for Micro threshold ....   0.100
   Minimum threshold for Micro iter.    ....   1.000e-02
   NR start threshold (gradient norm)   ....   1.000e-04
   Initial trust radius                 ....   0.400
   Minimum AH scaling param. (alpha)    ....   1.000
   Maximum AH scaling param. (alpha)    .... 1000.000
   Quad. conv. algorithm                .... NR
   White noise on init. David. guess    .... on
   Maximum white noise                  ....   0.010
   Pseudo random numbers                .... off
   Inactive MOs                         .... canonical
   Orbital update algorithm             .... Taylor
   Preconditioner                       .... Diag
   Full preconditioner red. dimension   ....   250
 SOSCF                 CNVSOSCF           .... on
   Start iteration     SOSCFMaxIt         ....   150
   Startup grad/error  SOSCFStart         ....  0.003300
   Hessian update      SOSCFHessUp        .... L-BFGS
   Autom. constraints  SOSCFAutoConstrain .... off
 Level Shifting         CNVShift        .... on
   Level shift para.    LevelShift      ....    0.2500
   Turn off err/grad.   ShiftErr        ....    0.0010
 Zerner damping         CNVZerner       .... off
 Static damping         CNVDamp         .... on
   Fraction old density DampFac         ....    0.7000
   Max. Damping (<1)    DampMax         ....    0.9800
   Min. Damping (>=0)   DampMin         ....    0.0000
   Turn off err/grad.   DampErr         ....    0.1000

SCF Procedure:
 Maximum # iterations   MaxIter         ....   125
 SCF integral mode      SCFMode         .... Direct
   Integral package                     .... SHARK and LIBINT hybrid scheme
 Reset frequency        DirectResetFreq ....    20
 Integral Threshold     Thresh          ....  1.000e-10 Eh
 Primitive CutOff       TCut            ....  1.000e-11 Eh

Convergence Tolerance:
 Convergence Check Mode ConvCheckMode   .... Total+1el-Energy
 Convergence forced     ConvForced      .... 0
 Energy Change          TolE            ....  1.000e-06 Eh
 1-El. energy change                    ....  1.000e-03 Eh
 Orbital Gradient       TolG            ....  5.000e-05
 Orbital Rotation angle TolX            ....  5.000e-05
 DIIS Error             TolErr          ....  1.000e-06

------------------------------
INITIAL GUESS: MODEL POTENTIAL
------------------------------
Loading Hartree-Fock densities                     ... done
Calculating cut-offs                               ... done
Initializing the effective Hamiltonian             ... done
Setting up the integral package (SHARK)            ... done
Starting the Coulomb interaction                   ... done (   0.0 sec)
Making the grid                                    ... done (   0.0 sec)
Mapping shells                                     ... done
Starting the XC term evaluation                    ... done (   0.0 sec)
  promolecular density results
     # of electrons  =     10.002444483
     EX              =     -6.309945605
     EC              =     -0.322331318
     EX+EC           =     -6.632276923
Transforming the Hamiltonian                       ... done (   0.0 sec)
Diagonalizing the Hamiltonian                      ... done (   0.0 sec)
Back transforming the eigenvectors                 ... done (   0.0 sec)
Now organizing SCF variables                       ... done
                      ------------------
                      INITIAL GUESS DONE (   0.0 sec)
                      ------------------
             **** ENERGY FILE WAS UPDATED (nmr-coupling-test.en.tmp) ****
Finished Guess after   0.0 sec
Maximum memory used throughout the entire GUESS-calculation: 5.6 MB

-------------------------------------------------------------------------------------------
                                      ORCA LEAN-SCF
                              memory conserving SCF solver
-------------------------------------------------------------------------------------------

----------------------------------------D-I-I-S--------------------------------------------
Iteration    Energy (Eh)           Delta-E    RMSDP     MaxDP     DIISErr   Damp  Time(sec)
-------------------------------------------------------------------------------------------
               ***  Starting incremental Fock matrix formation  ***
    1    -40.4128837932654648     0.00e+00  7.44e-03  8.64e-02  1.89e-01  0.700   0.0
    2    -40.4469000175079643    -3.40e-02  5.13e-03  4.97e-02  9.00e-02  0.700   0.0
                               ***Turning on AO-DIIS***
    3    -40.4587680705019324    -1.19e-02  1.92e-03  1.13e-02  2.53e-02  0.700   0.0
    4    -40.4655019247017762    -6.73e-03  2.68e-03  1.33e-02  7.58e-03  0.000   0.0
    5    -40.4807157492915195    -1.52e-02  7.98e-04  4.83e-03  9.22e-03  0.000   0.0
                              *** Initializing SOSCF ***
---------------------------------------S-O-S-C-F--------------------------------------
Iteration    Energy (Eh)           Delta-E    RMSDP     MaxDP     MaxGrad    Time(sec)
--------------------------------------------------------------------------------------
    6    -40.4808969779180927    -1.81e-04  2.93e-04  1.79e-03  2.42e-03     0.0
               *** Restarting incremental Fock matrix formation ***
    7    -40.4809117111265166    -1.47e-05  1.91e-04  1.16e-03  3.48e-04     0.0
    8    -40.4809114357508903     2.75e-07  6.44e-05  7.40e-04  4.03e-04     0.0
                 **** Energy Check signals convergence ****

               *****************************************************
               *                     SUCCESS                       *
               *           SCF CONVERGED AFTER   8 CYCLES          *
               *****************************************************

             **** ENERGY FILE WAS UPDATED (nmr-coupling-test.en.tmp) ****

----------------
TOTAL SCF ENERGY
----------------

Total Energy       :        -40.48091282061048 Eh           -1101.54164 eV

Components:
Nuclear Repulsion  :         13.47203452068095 Eh             366.59270 eV
Electronic Energy  :        -53.95294734129143 Eh           -1468.13434 eV
One Electron Energy:        -79.84661297530704 Eh           -2172.73680 eV
Two Electron Energy:         25.89366563401560 Eh             704.60246 eV

Virial components:
Potential Energy   :        -80.36760212539923 Eh           -2186.91363 eV
Kinetic Energy     :         39.88668930478874 Eh            1085.37200 eV
Virial Ratio       :          2.01489778986872

DFT components:
N(Alpha)           :        5.000017678995 electrons
N(Beta)            :        5.000017678995 electrons
N(Total)           :       10.000035357990 electrons
E(X)               :       -6.562290475725 Eh       
E(C)               :       -0.329332208447 Eh       
E(XC)              :       -6.891622684172 Eh       

---------------
SCF CONVERGENCE
---------------

  Last Energy change         ...   -2.7538e-07  Tolerance :   1.0000e-06
  Last MAX-Density change    ...    7.4045e-04  Tolerance :   1.0000e-05
  Last RMS-Density change    ...    6.4351e-05  Tolerance :   1.0000e-06
  Last DIIS Error            ...    2.4186e-03  Tolerance :   1.0000e-06
  Last Orbital Gradient      ...    4.0261e-04  Tolerance :   5.0000e-05
  Last Orbital Rotation      ...    2.6497e-04  Tolerance :   5.0000e-05


----------------
ORBITAL ENERGIES
----------------

  NO   OCC          E(Eh)            E(eV) 
   0   2.0000      -9.895398      -269.2675 
   1   2.0000      -0.620986       -16.8979 
   2   2.0000      -0.346649        -9.4328 
   3   2.0000      -0.346649        -9.4328 
   4   2.0000      -0.346649        -9.4328 
   5   0.0000       0.060949         1.6585 
   6   0.0000       0.125614         3.4181 
   7   0.0000       0.125614         3.4181 
   8   0.0000       0.125614         3.4181 
   9   0.0000       0.386010        10.5039 
  10   0.0000       0.386010        10.5039 
  11   0.0000       0.386010        10.5039 
  12   0.0000       0.615816        16.7572 
  13   0.0000       0.640424        17.4268 
  14   0.0000       0.640424        17.4268 
  15   0.0000       0.640424        17.4268 
*Only the first 10 virtual orbitals were printed.

                    ********************************
                    * MULLIKEN POPULATION ANALYSIS *
                    ********************************

-----------------------
MULLIKEN ATOMIC CHARGES
-----------------------
   0 C :   -0.169656
   1 H :    0.042414
   2 H :    0.042414
   3 H :    0.042414
   4 H :    0.042414
Sum of atomic charges:    0.0000000

--------------------------------
MULLIKEN REDUCED ORBITAL CHARGES
--------------------------------
  0 C s       :     3.061083  s :     3.061083
      pz      :     1.029814  p :     3.089442
      px      :     1.029814
      py      :     1.029814
      dz2     :     0.000000  d :     0.019131
      dxz     :     0.006377
      dyz     :     0.006377
      dx2y2   :     0.000000
      dxy     :     0.006377

  1 H s       :     0.933643  s :     0.933643
      pz      :     0.007981  p :     0.023943
      px      :     0.007981
      py      :     0.007981

  2 H s       :     0.933643  s :     0.933643
      pz      :     0.007981  p :     0.023943
      px      :     0.007981
      py      :     0.007981

  3 H s       :     0.933643  s :     0.933643
      pz      :     0.007981  p :     0.023943
      px      :     0.007981
      py      :     0.007981

  4 H s       :     0.933643  s :     0.933643
      pz      :     0.007981  p :     0.023943
      px      :     0.007981
      py      :     0.007981



                     *******************************
                     * LOEWDIN POPULATION ANALYSIS *
                     *******************************

----------------------
LOEWDIN ATOMIC CHARGES
----------------------
   0 C :   -0.122954
   1 H :    0.030739
   2 H :    0.030739
   3 H :    0.030739
   4 H :    0.030739

-------------------------------
LOEWDIN REDUCED ORBITAL CHARGES
-------------------------------
  0 C s       :     2.839723  s :     2.839723
      pz      :     1.077090  p :     3.231269
      px      :     1.077090
      py      :     1.077090
      dz2     :     0.000000  d :     0.051962
      dxz     :     0.017321
      dyz     :     0.017321
      dx2y2   :    -0.000000
      dxy     :     0.017321

  1 H s       :     0.902959  s :     0.902959
      pz      :     0.022101  p :     0.066302
      px      :     0.022101
      py      :     0.022101

  2 H s       :     0.902959  s :     0.902959
      pz      :     0.022101  p :     0.066302
      px      :     0.022101
      py      :     0.022101

  3 H s       :     0.902959  s :     0.902959
      pz      :     0.022101  p :     0.066302
      px      :     0.022101
      py      :     0.022101

  4 H s       :     0.902959  s :     0.902959
      pz      :     0.022101  p :     0.066302
      px      :     0.022101
      py      :     0.022101



                      *****************************
                      * MAYER POPULATION ANALYSIS *
                      *****************************

  NA   - Mulliken gross atomic population
  ZA   - Total nuclear charge
  QA   - Mulliken gross atomic charge
  VA   - Mayer's total valence
  BVA  - Mayer's bonded valence
  FA   - Mayer's free valence

  ATOM       NA         ZA         QA         VA         BVA        FA
  0 C      6.1697     6.0000    -0.1697     3.9910     3.9910     0.0000
  1 H      0.9576     1.0000     0.0424     0.9938     0.9938     0.0000
  2 H      0.9576     1.0000     0.0424     0.9938     0.9938     0.0000
  3 H      0.9576     1.0000     0.0424     0.9938     0.9938     0.0000
  4 H      0.9576     1.0000     0.0424     0.9938     0.9938     0.0000

  Mayer bond orders larger than 0.100000
B(  0-C ,  1-H ) :   0.9978 B(  0-C ,  2-H ) :   0.9978 B(  0-C ,  3-H ) :   0.9978 
B(  0-C ,  4-H ) :   0.9978 

-------
TIMINGS
-------

Total SCF time: 0 days 0 hours 0 min 0 sec 

Total time                  ....       0.248 sec
Sum of individual times     ....       0.218 sec  ( 87.8%)

SCF preparation             ....       0.020 sec  (  8.1%)
Fock matrix formation       ....       0.193 sec  ( 77.5%)
  Startup                   ....       0.000 sec  (  0.1% of F)
  Split-RI-J                ....       0.020 sec  ( 10.5% of F)
  XC integration            ....       0.196 sec  (101.7% of F)
    Basis function eval.    ....       0.085 sec  ( 43.4% of XC)
    Density eval.           ....       0.023 sec  ( 11.8% of XC)
    XC-Functional eval.     ....       0.051 sec  ( 26.1% of XC)
    XC-Potential eval.      ....       0.025 sec  ( 12.6% of XC)
Diagonalization             ....       0.000 sec  (  0.0%)
Density matrix formation    ....       0.001 sec  (  0.2%)
Total Energy calculation    ....       0.000 sec  (  0.1%)
Population analysis         ....       0.002 sec  (  0.7%)
Orbital Transformation      ....       0.000 sec  (  0.2%)
Orbital Orthonormalization  ....       0.000 sec  (  0.0%)
DIIS solution               ....       0.002 sec  (  0.8%)
SOSCF solution              ....       0.001 sec  (  0.2%)
Finished LeanSCF after   0.3 sec

Maximum memory used throughout the entire LEANSCF-calculation: 5.2 MB

------------------------------------------------------------------------------
                         ORCA PROPERTY INTEGRAL CALCULATIONS
------------------------------------------------------------------------------

GBWName                                   ... nmr-coupling-test.gbw
Number of atoms                           ...      5
Number of basis functions                 ...     34
Max core memory                           ...   4096 MB

Dipole integrals                          ... YES
Quadrupole integrals                      ...  NO
Linear momentum integrals                 ...  NO
Angular momentum integrals                ...  NO
Higher moments length integrals           ...  NO
Higher moments velocity integrals         ...  NO
Kinetic energy integrals                  ...  NO
GIAO right hand sides                     ... YES
GIAO dipole derivative integrals          ...  NO
SOC integrals                             ...  NO
EPR diamagnetic integrals (GIAO)          ...  NO
EPR gauge integrals                       ...  NO
Field gradient integrals                  ...  NO (   0 nuclei)
Spin-dipole/Fermi contact integrals       ... YES (   5 nuclei)
Contact density integrals                 ...  NO (   0 nuclei)
Nucleus-orbit integrals                   ... YES (   5 nuclei)
Geometric perturbations                   ...  NO (   5 nuclei)

Choice of electric origin   ... Center of mass
Position of electric origin ... ( -0.0000, -0.0000, -0.0000) 
Choice of magnetic origin   ... GIAO
Position of magnetic origin ... (  0.0000,  0.0000,  0.0000) 

Calculating integrals                     ... Electric Dipole (Length)     done (  0.0 sec)
Calculating integrals                     ... Nucleus-Orbit integrals      done (  0.0 sec)
Calculating integrals                     ... SD/FC/EFG integrals          done (  0.0 sec)

Calculating integrals                     ... GIAO Right Hand Sides
     -> RI used in SCF. Same chosen for GIAO calculation.
  One-electron GIAO integrals (SHARK)     ... done (  0.0 sec)
  Calculating G(B)[P]                     ... (RI-J: SHARK-ok) (copy J to G-ok) => dG/dB done (  0.0 sec)
  DFT XC-terms                            ... done (  0.1 sec)
  Extracting occupied and virtual blocks  ... 
  Operator  0  NO=   5 NV=  29 
  Transforming and RHS contribution       ... done
  Adding eps_i * S(B)_ai terms            ... done
  GIAO Right hand sides done (  0.2 sec)


Property integrals calculated in   0.2 sec

Maximum memory used throughout the entire PROPINT-calculation: 6.0 MB

-------------------------   --------------------
FINAL SINGLE POINT ENERGY       -40.480912820610
-------------------------   --------------------

------------------------------------------------------------------------------
                            ORCA SCF RESPONSE CALCULATION
------------------------------------------------------------------------------

GBWName                                 ... nmr-coupling-test.gbw
Number of atoms                         ...      5
Number of basis functions               ...     34
Max core memory                         ...   4096 MB

Electric field perturbation             ...  NO
Quadrupolar field perturbation          ...  NO
Magnetic field perturbation (no GIAO)   ...  NO
Magnetic field perturbation (with GIAO) ... YES
Linear momentum (velocity) perturbation ...  NO
Spin-orbit coupling perturbation        ...  NO
Choice of electric origin               ... Center of mass
Position of electric origin             ...    -0.000000    -0.000000    -0.000000
Choice of magnetic origin               ... GIAO
Position of magnetic origin             ...     0.000000     0.000000     0.000000
Nuclear geometric perturbations         ...  NO (  15 perturbations)
Nucleus-orbit perturbations             ... YES (  12 perturbations)
Spin-dipole/Fermi contact perturbations ... YES (  28 perturbations)

Total number of real perturbations      ...      0
Total number of imaginary perturbations ...     15
Total number of triplet perturbations   ...     28
Total number of SOC perturbations       ...      0


                              ***************************
                              * IMAGINARY PERTURBATIONS *
                              ***************************



-------------------
SHARK CP-SCF DRIVER
-------------------

Dimension of the orbital basis          ...     34
Dimension of the CPSCF-problem          ...    145
Number of operators                     ...      1
Max. number of iterations               ...    128
Convergence Tolerance                   ... 1.0e-03
Number of perturbations                 ...     15
Perturbation type                       ... IMAGINARY

----------------------------
POPLE LINEAR EQUATION SOLVER
----------------------------

  ITERATION   0:   ||err||_max =   3.7252e-16 (   0.0 sec  15/ 15 done)

CP-SCF equations solved in   0.0 sec
Response densities calculated in   0.0 sec

                               *************************
                               * TRIPLET PERTURBATIONS *
                               *************************



-------------------
SHARK CP-SCF DRIVER
-------------------

Dimension of the orbital basis          ...     34
Dimension of the CPSCF-problem          ...    145
Number of operators                     ...      1
Max. number of iterations               ...    128
Convergence Tolerance                   ... 1.0e-03
Number of perturbations                 ...     28
Perturbation type                       ... TRIPLET

----------------------------
POPLE LINEAR EQUATION SOLVER
----------------------------

  ITERATION   0:   ||err||_max =   3.0126e+00 (   0.0 sec   0/ 28 done)
  ITERATION   1:   ||err||_max =   2.2610e-01 (   0.0 sec   9/ 28 done)
  ITERATION   2:   ||err||_max =   9.8419e-03 (   0.0 sec  21/ 28 done)
  ITERATION   3:   ||err||_max =   5.5434e-04 (   0.0 sec  28/ 28 done)

CP-SCF equations solved in   0.1 sec
Response densities calculated in   0.0 sec

Maximum memory used throughout the entire SCFRESP-calculation: 4.7 MB

------------------------------------------------------------------------------
                              ORCA PROPERTY CALCULATIONS
------------------------------------------------------------------------------

GBWName                                 ... nmr-coupling-test.gbw
Number of atoms                         ...      5
Number of basis functions               ...     34
Max core memory                         ...   4096 MB

Electric properties:
Dipole moment                           ... YES
Quadrupole moment                       ...  NO
Static polarizability (Dipole/Dipole)   ...  NO
Static polarizability (Dipole/Quad.)    ...  NO
Static polarizability (Quad./Quad.)     ...  NO
Static polarizability (Velocity)        ...  NO
Static hyperpolarizability              ...  NO

Atomic electric properties:
Dipole moment                           ...  NO
Quadrupole moment                       ...  NO
Static polarizability                   ...  NO

Choice of electric origin               ... Center of mass
Position of electric origin             ...    -0.000000    -0.000000    -0.000000

General magnetic properties:
Magnetizability                         ...  NO

EPR properties:
g-Tensor (aka g-matrix)                 ...  NO
Zero-Field splitting spin-orbit         ...  NO
Zero-field splitting spin-spin          ...  NO
Hyperfine couplings                     ...  NO (   0 nuclei)
Quadrupole couplings                    ...  NO (   0 nuclei)
Contact density                         ...  NO (   0 nuclei)

NMR properties:
Chemical shifts                         ... YES (   5 nuclei)
Spin-rotation constants                 ...  NO (   0 nuclei)
Spin-spin couplings                     ... YES (   5 nuclei,   10 pairs)

Choice of magnetic origin               ... GIAO
Position of magnetic origin             ...     0.000000     0.000000     0.000000

Properties with geometric perturbations:
SCF Hessian                             ...  NO
IR spectrum                             ...  NO
VCD spectrum                            ...  NO
X-ray spectroscopy properties:
SCF XES/XAS/RIXS spectra                ...  NO

SCF SOC stabilization energy            ...  NO
Diagonal Born-Oppenheimer correction    ...  NO

-------------
DIPOLE MOMENT
-------------

Method             : SCF
Type of density    : Electron Density
Multiplicity       :   1
Irrep              :   0
Energy             :   -40.4809128206104845 Eh
Basis              : AO
                                X                 Y                 Z
Electronic contribution:      0.000000002       0.000000001       0.000000002
Nuclear contribution   :      0.000000000       0.000000000       0.000000000
                        -----------------------------------------
Total Dipole Moment    :      0.000000002       0.000000001       0.000000002
                        -----------------------------------------
Magnitude (a.u.)       :      0.000000003
Magnitude (Debye)      :      0.000000008



--------------------
Rotational spectrum 
--------------------
 
Rotational constants in cm-1:             5.307379             5.307379             5.307379 
Rotational constants in MHz :        159111.231513        159111.231513        159111.231513 

Dipole components along the rotational axes: 
x,y,z [a.u.] :     0.000000     0.000000     0.000000 
x,y,z [Debye]:     0.000000     0.000000     0.000000 

 

Dipole moment calculation done in   0.0 sec 
GIAO: Analytic para- and diamagnetic shielding integrals (SHARK)       ... done (  0.0 sec)
-------------------
CHEMICAL SHIELDINGS (ppm)
-------------------

Method             : SCF
Type of density    : Electron Density
Type of derivative : Magnetic Field (with GIAOs) (Direction=X)
Multiplicity       :   1
Irrep              :   0
Basis              : AO
 --------------
 Nucleus   0C :
 --------------

Diamagnetic contribution to the shielding tensor (ppm) : 
           245.496         -0.000        -0.000
            -0.000        245.496        -0.000
            -0.000         -0.000       245.496

Paramagnetic contribution to the shielding tensor (ppm): 
           -48.941         -0.000        -0.000
            -0.000        -48.941        -0.000
            -0.000         -0.000       -48.941

Total shielding tensor (ppm): 
           196.555         -0.000        -0.000
            -0.000        196.555        -0.000
            -0.000         -0.000       196.555


 Diagonalized sT*s matrix:
 
 sDSO           245.496          245.496          245.496  iso=     245.496
 sPSO           -48.941          -48.941          -48.941  iso=     -48.941
        ---------------  ---------------  ---------------
 Total          196.555          196.555          196.555  iso=     196.555

 Orientation: 
  X           0.5825290   -0.5420098   -0.6057106
  Y           0.6458982   -0.1437102    0.7497752
  Z           0.4934323    0.8279932   -0.2663678

 --------------
 Nucleus   1H :
 --------------

Diamagnetic contribution to the shielding tensor (ppm) : 
            29.944          4.059         4.059
             4.059         29.944         4.059
             4.059          4.059        29.944

Paramagnetic contribution to the shielding tensor (ppm): 
             1.563         -1.082        -1.082
            -1.082          1.563        -1.082
            -1.082         -1.082         1.563

Total shielding tensor (ppm): 
            31.508          2.977         2.977
             2.977         31.508         2.977
             2.977          2.977        31.508


 Diagonalized sT*s matrix:
 
 sDSO            25.885           25.885           38.063  iso=      29.944
 sPSO             2.646            2.646           -0.601  iso=       1.563
        ---------------  ---------------  ---------------
 Total           28.531           28.531           37.461  iso=      31.508

 Orientation: 
  X           0.6111347   -0.5414620    0.5773503
  Y          -0.7744872   -0.2585272    0.5773503
  Z           0.1633525    0.7999891    0.5773503

 --------------
 Nucleus   2H :
 --------------

Diamagnetic contribution to the shielding tensor (ppm) : 
            29.944          4.059        -4.059
             4.059         29.944        -4.059
            -4.059         -4.059        29.944

Paramagnetic contribution to the shielding tensor (ppm): 
             1.563         -1.082         1.082
            -1.082          1.563         1.082
             1.082          1.082         1.563

Total shielding tensor (ppm): 
            31.508          2.977        -2.977
             2.977         31.508        -2.977
            -2.977         -2.977        31.508


 Diagonalized sT*s matrix:
 
 sDSO            25.885           25.885           38.063  iso=      29.944
 sPSO             2.646            2.646           -0.601  iso=       1.563
        ---------------  ---------------  ---------------
 Total           28.531           28.531           37.461  iso=      31.508

 Orientation: 
  X           0.7426893   -0.3392333   -0.5773503
  Y          -0.6651293   -0.4735712   -0.5773503
  Z           0.0775600   -0.8128045    0.5773503

 --------------
 Nucleus   3H :
 --------------

Diamagnetic contribution to the shielding tensor (ppm) : 
            29.944         -4.059         4.059
            -4.059         29.944        -4.059
             4.059         -4.059        29.944

Paramagnetic contribution to the shielding tensor (ppm): 
             1.563          1.082        -1.082
             1.082          1.563         1.082
            -1.082          1.082         1.563

Total shielding tensor (ppm): 
            31.508         -2.977         2.977
            -2.977         31.508        -2.977
             2.977         -2.977        31.508


 Diagonalized sT*s matrix:
 
 sDSO            25.885           25.885           38.063  iso=      29.944
 sPSO             2.646            2.646           -0.601  iso=       1.563
        ---------------  ---------------  ---------------
 Total           28.531           28.531           37.461  iso=      31.508

 Orientation: 
  X           0.6519639    0.4915381    0.5773503
  Y          -0.0997025    0.8103864   -0.5773503
  Z          -0.7516665    0.3188483    0.5773503

 --------------
 Nucleus   4H :
 --------------

Diamagnetic contribution to the shielding tensor (ppm) : 
            29.944         -4.059        -4.059
            -4.059         29.944         4.059
            -4.059          4.059        29.944

Paramagnetic contribution to the shielding tensor (ppm): 
             1.563          1.082         1.082
             1.082          1.563        -1.082
             1.082         -1.082         1.563

Total shielding tensor (ppm): 
            31.508         -2.977        -2.977
            -2.977         31.508         2.977
            -2.977          2.977        31.508


 Diagonalized sT*s matrix:
 
 sDSO            25.885           25.885           38.063  iso=      29.944
 sPSO             2.646            2.646           -0.601  iso=       1.563
        ---------------  ---------------  ---------------
 Total           28.531           28.531           37.461  iso=      31.508

 Orientation: 
  X          -0.0800368    0.8125643   -0.5773503
  Y          -0.7437198    0.3369682    0.5773503
  Z           0.6636829    0.4755961    0.5773503



--------------------------------
CHEMICAL SHIELDING SUMMARY (ppm)
--------------------------------


  Nucleus  Element    Isotropic     Anisotropy
  -------  -------  ------------   ------------
      0       C          196.555          0.000 
      1       H           31.508          8.930 
      2       H           31.508          8.930 
      3       H           31.508          8.930 
      4       H           31.508          8.930 


NMR shielding tensor and spin rotation calculation done in   0.0 sec 


-----------------------------------------------------------------------
                     NMR SPIN-SPIN COUPLING CONSTANTS
                     ================================

    Number of nuclear pairs to calculate something:       10
                                                        ----
    Number of nuclear pairs to calculate DSO   terms:     10
    Number of nuclear pairs to calculate PSO   terms:     10
    Number of nuclear pairs to calculate FC    terms:     10
    Number of nuclear pairs to calculate SD    terms:     10
    Number of nuclear pairs to calculate SD/FC terms:     10
-----------------------------------------------------------------------

Performing DSO num. integration        ... done (   0.0 sec)

Processing PSO nuclear pairs   ... done (   0.0 sec)
Processing SD/FC nuclear pairs ... done (   0.0 sec)

-----------------------------------------------------------
 NUCLEUS A = C    0 NUCLEUS B = H    1 
 ( 13C  gnA =  1.405   1H  gnB =  5.586) r(AB) =     1.0870
-----------------------------------------------------------

Diamagnetic contribution to J (Hz):
        0.3095         6.6972        6.6972
        6.6972         0.3095        6.6972
        6.6972         6.6972        0.3095
Paramagnetic contribution to J (Hz):
        1.2393        -4.6677       -4.6677
       -4.6677         1.2393       -4.6677
       -4.6677        -4.6677        1.2393
Fermi-contact contribution to J (Hz):
      163.3950         0.0000        0.0000
        0.0000       163.3950        0.0000
        0.0000         0.0000      163.3950
Spin-dipolar contribution to J (Hz):
        0.1735        -0.1481       -0.1481
       -0.1481         0.1735       -0.1481
       -0.1481        -0.1481        0.1735
Spin-dipolar/Fermi contact cross term contribution to J (Hz):
       -0.0000         8.5883        8.5883
        8.5883        -0.0000        8.5883
        8.5883         8.5883        0.0000

Total spin-spin coupling tensor J (Hz):
      165.1173        10.4696       10.4696
       10.4696       165.1173       10.4696
       10.4696        10.4696      165.1173

 Diagonalized JT*J matrix:
 
 J[0,1](DSO)           -6.388           -6.388           13.704  iso=      0.310
 J[0,1](PSO)            5.907            5.907           -8.096  iso=      1.239
 J[0,1](FC)           163.395          163.395          163.395  iso=    163.395
 J[0,1](SD)             0.322            0.322           -0.123  iso=      0.174
 J[0,1](SD/FC)         -8.588           -8.588           17.177  iso=      0.000
              ---------------  ---------------  ---------------  ---------------
 J[0,1](Total)        154.648          154.648          186.057  iso=    165.117



-----------------------------------------------------------
 NUCLEUS A = C    0 NUCLEUS B = H    2 
 ( 13C  gnA =  1.405   1H  gnB =  5.586) r(AB) =     1.0870
-----------------------------------------------------------

Diamagnetic contribution to J (Hz):
        0.3095         6.6972       -6.6972
        6.6972         0.3095       -6.6972
       -6.6972        -6.6972        0.3095
Paramagnetic contribution to J (Hz):
        1.2393        -4.6677        4.6677
       -4.6677         1.2393        4.6677
        4.6677         4.6677        1.2393
Fermi-contact contribution to J (Hz):
      163.3950         0.0000        0.0000
        0.0000       163.3950        0.0000
        0.0000         0.0000      163.3950
Spin-dipolar contribution to J (Hz):
        0.1735        -0.1481        0.1481
       -0.1481         0.1735        0.1481
        0.1481         0.1481        0.1735
Spin-dipolar/Fermi contact cross term contribution to J (Hz):
        0.0000         8.5883       -8.5883
        8.5883        -0.0000       -8.5883
       -8.5883        -8.5883        0.0000

Total spin-spin coupling tensor J (Hz):
      165.1173        10.4696      -10.4696
       10.4696       165.1173      -10.4696
      -10.4696       -10.4696      165.1173

 Diagonalized JT*J matrix:
 
 J[0,2](DSO)           -6.388           -6.388           13.704  iso=      0.310
 J[0,2](PSO)            5.907            5.907           -8.096  iso=      1.239
 J[0,2](FC)           163.395          163.395          163.395  iso=    163.395
 J[0,2](SD)             0.322            0.322           -0.123  iso=      0.174
 J[0,2](SD/FC)         -8.588           -8.588           17.177  iso=     -0.000
              ---------------  ---------------  ---------------  ---------------
 J[0,2](Total)        154.648          154.648          186.057  iso=    165.117



-----------------------------------------------------------
 NUCLEUS A = C    0 NUCLEUS B = H    3 
 ( 13C  gnA =  1.405   1H  gnB =  5.586) r(AB) =     1.0870
-----------------------------------------------------------

Diamagnetic contribution to J (Hz):
        0.3095        -6.6972        6.6972
       -6.6972         0.3095       -6.6972
        6.6972        -6.6972        0.3095
Paramagnetic contribution to J (Hz):
        1.2393         4.6677       -4.6677
        4.6677         1.2393        4.6677
       -4.6677         4.6677        1.2393
Fermi-contact contribution to J (Hz):
      163.3950         0.0000        0.0000
        0.0000       163.3950        0.0000
        0.0000         0.0000      163.3950
Spin-dipolar contribution to J (Hz):
        0.1735         0.1481       -0.1481
        0.1481         0.1735        0.1481
       -0.1481         0.1481        0.1735
Spin-dipolar/Fermi contact cross term contribution to J (Hz):
        0.0000        -8.5883        8.5883
       -8.5883        -0.0000       -8.5883
        8.5883        -8.5883       -0.0000

Total spin-spin coupling tensor J (Hz):
      165.1173       -10.4696       10.4696
      -10.4696       165.1173      -10.4696
       10.4696       -10.4696      165.1173

 Diagonalized JT*J matrix:
 
 J[0,3](DSO)           -6.388           -6.388           13.704  iso=      0.310
 J[0,3](PSO)            5.907            5.907           -8.096  iso=      1.239
 J[0,3](FC)           163.395          163.395          163.395  iso=    163.395
 J[0,3](SD)             0.322            0.322           -0.123  iso=      0.174
 J[0,3](SD/FC)         -8.588           -8.588           17.177  iso=      0.000
              ---------------  ---------------  ---------------  ---------------
 J[0,3](Total)        154.648          154.648          186.057  iso=    165.117



-----------------------------------------------------------
 NUCLEUS A = C    0 NUCLEUS B = H    4 
 ( 13C  gnA =  1.405   1H  gnB =  5.586) r(AB) =     1.0870
-----------------------------------------------------------

Diamagnetic contribution to J (Hz):
        0.3095        -6.6972       -6.6972
       -6.6972         0.3095        6.6972
       -6.6972         6.6972        0.3095
Paramagnetic contribution to J (Hz):
        1.2393         4.6677        4.6677
        4.6677         1.2393       -4.6677
        4.6677        -4.6677        1.2393
Fermi-contact contribution to J (Hz):
      163.3950         0.0000        0.0000
        0.0000       163.3950        0.0000
        0.0000         0.0000      163.3950
Spin-dipolar contribution to J (Hz):
        0.1735         0.1481        0.1481
        0.1481         0.1735       -0.1481
        0.1481        -0.1481        0.1735
Spin-dipolar/Fermi contact cross term contribution to J (Hz):
       -0.0000        -8.5883       -8.5883
       -8.5883         0.0000        8.5883
       -8.5883         8.5883       -0.0000

Total spin-spin coupling tensor J (Hz):
      165.1173       -10.4696      -10.4696
      -10.4696       165.1173       10.4696
      -10.4696        10.4696      165.1173

 Diagonalized JT*J matrix:
 
 J[0,4](DSO)           -6.388           -6.388           13.704  iso=      0.310
 J[0,4](PSO)            5.907            5.907           -8.096  iso=      1.239
 J[0,4](FC)           163.395          163.395          163.395  iso=    163.395
 J[0,4](SD)             0.322            0.322           -0.123  iso=      0.174
 J[0,4](SD/FC)         -8.588           -8.588           17.177  iso=      0.000
              ---------------  ---------------  ---------------  ---------------
 J[0,4](Total)        154.648          154.648          186.057  iso=    165.117



-----------------------------------------------------------
 NUCLEUS A = H    1 NUCLEUS B = H    2 
 (  1H  gnA =  5.586   1H  gnB =  5.586) r(AB) =     1.7751
-----------------------------------------------------------

Diamagnetic contribution to J (Hz):
       -0.3880         6.7943        3.5214
        6.7943        -0.3880        3.5214
       -3.5214        -3.5214       -9.5217
Paramagnetic contribution to J (Hz):
        0.7897        -3.0415       -2.0234
       -3.0415         0.7897       -2.0234
        2.0234         2.0234        6.3002
Fermi-contact contribution to J (Hz):
      -11.4225         0.0000        0.0000
        0.0000       -11.4225        0.0000
        0.0000         0.0000      -11.4225
Spin-dipolar contribution to J (Hz):
       -0.0249         0.1589        0.6497
        0.1589        -0.0249        0.6497
       -0.6516        -0.6516        0.7254
Spin-dipolar/Fermi contact cross term contribution to J (Hz):
        1.0869        -2.2357       -0.0119
       -2.2357         1.0869       -0.0119
       -0.0119        -0.0119       -2.1737

Total spin-spin coupling tensor J (Hz):
       -9.9589         1.6760        2.1358
        1.6760        -9.9589        2.1358
       -2.1615        -2.1615      -16.0924

 Diagonalized JT*J matrix:
 
 J[1,2](DSO)            6.161           -7.182           -9.276  iso=     -3.433
 J[1,2](PSO)           -2.120            3.831            6.168  iso=      2.627
 J[1,2](FC)           -11.423          -11.423          -11.423  iso=    -11.423
 J[1,2](SD)             0.143           -0.184            0.716  iso=      0.225
 J[1,2](SD/FC)         -1.161            3.323           -2.162  iso=      0.000
              ---------------  ---------------  ---------------  ---------------
 J[1,2](Total)         -8.399          -11.635          -15.976  iso=    -12.003



-----------------------------------------------------------
 NUCLEUS A = H    1 NUCLEUS B = H    3 
 (  1H  gnA =  5.586   1H  gnB =  5.586) r(AB) =     1.7751
-----------------------------------------------------------

Diamagnetic contribution to J (Hz):
       -0.3880         3.5214        6.7943
       -3.5214        -9.5217       -3.5214
        6.7943         3.5214       -0.3880
Paramagnetic contribution to J (Hz):
        0.7897        -2.0234       -3.0415
        2.0234         6.3002        2.0234
       -3.0415        -2.0234        0.7897
Fermi-contact contribution to J (Hz):
      -11.4225         0.0000        0.0000
        0.0000       -11.4225        0.0000
        0.0000         0.0000      -11.4225
Spin-dipolar contribution to J (Hz):
       -0.0249         0.6497        0.1589
       -0.6516         0.7254       -0.6516
        0.1589         0.6497       -0.0249
Spin-dipolar/Fermi contact cross term contribution to J (Hz):
        1.0869        -0.0119       -2.2357
       -0.0119        -2.1737       -0.0119
       -2.2357        -0.0119        1.0869

Total spin-spin coupling tensor J (Hz):
       -9.9589         2.1358        1.6760
       -2.1615       -16.0924       -2.1615
        1.6760         2.1358       -9.9589

 Diagonalized JT*J matrix:
 
 J[1,3](DSO)            6.161           -7.182           -9.276  iso=     -3.433
 J[1,3](PSO)           -2.120            3.831            6.168  iso=      2.627
 J[1,3](FC)           -11.423          -11.423          -11.423  iso=    -11.423
 J[1,3](SD)             0.143           -0.184            0.716  iso=      0.225
 J[1,3](SD/FC)         -1.161            3.323           -2.162  iso=     -0.000
              ---------------  ---------------  ---------------  ---------------
 J[1,3](Total)         -8.399          -11.635          -15.976  iso=    -12.003



-----------------------------------------------------------
 NUCLEUS A = H    1 NUCLEUS B = H    4 
 (  1H  gnA =  5.586   1H  gnB =  5.586) r(AB) =     1.7751
-----------------------------------------------------------

Diamagnetic contribution to J (Hz):
       -9.5217        -3.5214       -3.5214
        3.5214        -0.3880        6.7943
        3.5214         6.7943       -0.3880
Paramagnetic contribution to J (Hz):
        6.3002         2.0234        2.0234
       -2.0234         0.7897       -3.0415
       -2.0234        -3.0415        0.7897
Fermi-contact contribution to J (Hz):
      -11.4225         0.0000        0.0000
        0.0000       -11.4225        0.0000
        0.0000         0.0000      -11.4225
Spin-dipolar contribution to J (Hz):
        0.7254        -0.6516       -0.6516
        0.6497        -0.0249        0.1589
        0.6497         0.1589       -0.0249
Spin-dipolar/Fermi contact cross term contribution to J (Hz):
       -2.1737        -0.0119       -0.0119
       -0.0119         1.0869       -2.2357
       -0.0119        -2.2357        1.0869

Total spin-spin coupling tensor J (Hz):
      -16.0924        -2.1615       -2.1615
        2.1358        -9.9589        1.6760
        2.1358         1.6760       -9.9589

 Diagonalized JT*J matrix:
 
 J[1,4](DSO)            6.161           -7.182           -9.276  iso=     -3.433
 J[1,4](PSO)           -2.120            3.831            6.168  iso=      2.627
 J[1,4](FC)           -11.423          -11.423          -11.423  iso=    -11.423
 J[1,4](SD)             0.143           -0.184            0.716  iso=      0.225
 J[1,4](SD/FC)         -1.161            3.323           -2.162  iso=     -0.000
              ---------------  ---------------  ---------------  ---------------
 J[1,4](Total)         -8.399          -11.635          -15.976  iso=    -12.003



-----------------------------------------------------------
 NUCLEUS A = H    2 NUCLEUS B = H    3 
 (  1H  gnA =  5.586   1H  gnB =  5.586) r(AB) =     1.7751
-----------------------------------------------------------

Diamagnetic contribution to J (Hz):
       -9.5217        -3.5214        3.5214
        3.5214        -0.3880       -6.7943
       -3.5214        -6.7943       -0.3880
Paramagnetic contribution to J (Hz):
        6.3002         2.0234       -2.0234
       -2.0234         0.7897        3.0415
        2.0234         3.0415        0.7897
Fermi-contact contribution to J (Hz):
      -11.4225         0.0000        0.0000
        0.0000       -11.4225        0.0000
        0.0000         0.0000      -11.4225
Spin-dipolar contribution to J (Hz):
        0.7254        -0.6497        0.6497
        0.6516        -0.0249       -0.1589
       -0.6516        -0.1589       -0.0249
Spin-dipolar/Fermi contact cross term contribution to J (Hz):
       -2.1737         0.0119       -0.0119
        0.0119         1.0869        2.2357
       -0.0119         2.2357        1.0869

Total spin-spin coupling tensor J (Hz):
      -16.0924        -2.1358        2.1358
        2.1615        -9.9589       -1.6760
       -2.1615        -1.6760       -9.9589

 Diagonalized JT*J matrix:
 
 J[2,3](DSO)            6.179           -7.182           -9.294  iso=     -3.433
 J[2,3](PSO)           -2.130            3.831            6.178  iso=      2.627
 J[2,3](FC)           -11.423          -11.423          -11.423  iso=    -11.423
 J[2,3](SD)             0.142           -0.184            0.717  iso=      0.225
 J[2,3](SD/FC)         -1.168            3.323           -2.155  iso=     -0.000
              ---------------  ---------------  ---------------  ---------------
 J[2,3](Total)         -8.399          -11.635          -15.976  iso=    -12.003



-----------------------------------------------------------
 NUCLEUS A = H    2 NUCLEUS B = H    4 
 (  1H  gnA =  5.586   1H  gnB =  5.586) r(AB) =     1.7751
-----------------------------------------------------------

Diamagnetic contribution to J (Hz):
       -0.3880         3.5214       -6.7943
       -3.5214        -9.5217        3.5214
       -6.7943        -3.5214       -0.3880
Paramagnetic contribution to J (Hz):
        0.7897        -2.0234        3.0415
        2.0234         6.3002       -2.0234
        3.0415         2.0234        0.7897
Fermi-contact contribution to J (Hz):
      -11.4225         0.0000        0.0000
        0.0000       -11.4225        0.0000
        0.0000         0.0000      -11.4225
Spin-dipolar contribution to J (Hz):
       -0.0249         0.6516       -0.1589
       -0.6497         0.7254        0.6497
       -0.1589        -0.6516       -0.0249
Spin-dipolar/Fermi contact cross term contribution to J (Hz):
        1.0869         0.0119        2.2357
        0.0119        -2.1737       -0.0119
        2.2357        -0.0119        1.0869

Total spin-spin coupling tensor J (Hz):
       -9.9589         2.1615       -1.6760
       -2.1358       -16.0924        2.1358
       -1.6760        -2.1615       -9.9589

 Diagonalized JT*J matrix:
 
 J[2,4](DSO)            6.179           -7.182           -9.294  iso=     -3.433
 J[2,4](PSO)           -2.130            3.831            6.178  iso=      2.627
 J[2,4](FC)           -11.423          -11.423          -11.423  iso=    -11.423
 J[2,4](SD)             0.142           -0.184            0.717  iso=      0.225
 J[2,4](SD/FC)         -1.168            3.323           -2.155  iso=     -0.000
              ---------------  ---------------  ---------------  ---------------
 J[2,4](Total)         -8.399          -11.635          -15.976  iso=    -12.003



-----------------------------------------------------------
 NUCLEUS A = H    3 NUCLEUS B = H    4 
 (  1H  gnA =  5.586   1H  gnB =  5.586) r(AB) =     1.7751
-----------------------------------------------------------

Diamagnetic contribution to J (Hz):
       -0.3880        -6.7943        3.5214
       -6.7943        -0.3880       -3.5214
       -3.5214         3.5214       -9.5217
Paramagnetic contribution to J (Hz):
        0.7897         3.0415       -2.0234
        3.0415         0.7897        2.0234
        2.0234        -2.0234        6.3002
Fermi-contact contribution to J (Hz):
      -11.4225         0.0000        0.0000
        0.0000       -11.4225        0.0000
        0.0000         0.0000      -11.4225
Spin-dipolar contribution to J (Hz):
       -0.0249        -0.1589        0.6516
       -0.1589        -0.0249       -0.6516
       -0.6497         0.6497        0.7254
Spin-dipolar/Fermi contact cross term contribution to J (Hz):
        1.0869         2.2357        0.0119
        2.2357         1.0869       -0.0119
        0.0119        -0.0119       -2.1737

Total spin-spin coupling tensor J (Hz):
       -9.9589        -1.6760        2.1615
       -1.6760        -9.9589       -2.1615
       -2.1358         2.1358      -16.0924

 Diagonalized JT*J matrix:
 
 J[3,4](DSO)            6.179           -7.182           -9.294  iso=     -3.433
 J[3,4](PSO)           -2.130            3.831            6.178  iso=      2.627
 J[3,4](FC)           -11.423          -11.423          -11.423  iso=    -11.423
 J[3,4](SD)             0.142           -0.184            0.717  iso=      0.225
 J[3,4](SD/FC)         -1.168            3.323           -2.155  iso=     -0.000
              ---------------  ---------------  ---------------  ---------------
 J[3,4](Total)         -8.399          -11.635          -15.976  iso=    -12.003



-----------------------------------------------------------------------------
                SUMMARY OF ISOTROPIC COUPLING CONSTANTS J (Hz)                
-----------------------------------------------------------------------------
                  0 C        1 H        2 H        3 H        4 H  
      0 C        0.000    165.117    165.117    165.117    165.117
      1 H      165.117      0.000    -12.003    -12.003    -12.003
      2 H      165.117    -12.003      0.000    -12.003    -12.003
      3 H      165.117    -12.003    -12.003      0.000    -12.003
      4 H      165.117    -12.003    -12.003    -12.003      0.000

NMR spin-spin coupling calculation done in   0.0 sec 

Maximum memory used throughout the entire PROP-calculation: 5.7 MB

--------------------------------
SUGGESTED CITATIONS FOR THIS RUN
--------------------------------

Below you find a list of papers that are relevant to this ORCA run
We neither can nor want to force you to cite these papers, but we appreciate if you do
You receive ORCA, which is the product of decades of hard work by many enthusiastic individuals, for free
The only thing we kindly ask in return is that you cite our papers,
We deeply appreciate it, if you show your appreciation for ORCA by not just citing the generic ORCA reference.

Please note that relegating all ORCA citations to the supporting information does *not* help us.
SI sections are not indexed - citations you put there will not count into any citation statistics
But we need these citations in order to attract the funding resources that allow us to do what we are doing

Therefore, if you are a happy ORCA user, please consider citing a few of the papers listed below in the main body of your paper

In addition to the list printed below, the program has created the file nmr-coupling-test.bibtex that contains the list in bibtex format
You can import this file easily into all common literature databanks and citation aid programs

It goes without saying that in many instances, there are alternative algorithms to achieve similar
results as the ones you have gotten from ORCA. It is, of course, also the case that in some instances
ORCA just re-implements algorithms worked out by others. We are fully aware of that and we are also
fully appreciative of our colleagues work. Hence this citation list should not be read as indicating
that the listed papers, which are focused on our own work, are the only ones worth citing. It simply
meant to make it easier for users to cite ORCA specific papers. It is not a substitute for doing your
own literature research and citing the relevant literature in a scientifically appropriate manner.

List of essential papers. We consider these as the minimum necessary citations

  1. Neese, F.
     Software update: the ORCA program system, version 6.0
     WIRES Comput. Molec. Sci. 2025 15(1), e70019
     doi.org/10.1002/wcms.70019

List of papers to cite with high priority. The work reported in these papers was absolutely
necessary for this run to complete.
Our perspective: the developers of density functionals and basis sets usually get cited in chemistry papers
Good! But without the algorithms to do something with them, the functionals or basis sets would not do anything.
Hence, in our opinion, the algorithm design and method developments papers are equally worthy of getting cited

  1. Neese, F.
     An improvement of the resolution of the identity approximation for the formation of the Coulomb matrix
     J. Comp. Chem. 2003 24(14), 1740-1747
     doi.org/10.1002/jcc.10318
  2. Grimme, S.; Bannwarth, C.; Dohm, S.; Hansen, A.; Pisarek, J.; Pracht, P.; Seibert, J.; Neese, F.
     Fully Automated Quantum-Chemistry-Based Computation of Spin-Spin-Coupled Nuclear Magnetic Resonance Spectra
     Angew. Chem., Int. Ed. 2017 56 , 14763-14769
     doi.org/10.1002/anie.201708266
  3. Stoychev, G.L.; Auer, A.A.; Izsak, R.; Neese, F.
     Self-Consistent Field Calculation of Nuclear Magnetic Resonance Chemical Shielding Constants Using Gauge-Including Atomic Orbitals and Approximate Two-Electron Integrals
     J. Chem. Theory Comput. 2018 14(2), 619-637
     doi.org/10.1021/acs.jctc.7b01006
  4. Neese, F.
     The SHARK Integral Generation and Digestion System
     J. Comp. Chem. 2022 44(3), 381
     doi.org/10.1002/jcc.26942

List of suggested additional citations. These are papers that are important in the 'surrounding' of 
of this run, or papers that preceded the highly important papers. If you like your results we are grateful for a citation.

  1. Neese, F.
     The ORCA program system
     WIRES Comput. Molec. Sci. 2012 2(1), 73-78
     doi.org/10.1002/wcms.81
  2. Neese, F.
     Software update: the ORCA program system, version 4.0
     WIRES Comput. Molec. Sci. 2018 8(1), 1-6
     doi.org/10.1002/wcms.1327
  3. Neese, F.; Wennmohs, F.; Becker, U.; Riplinger, C.
     The ORCA quantum chemistry program package
     J. Chem. Phys. 2020 152(22), 224108
     doi.org/10.1063/5.0004608
  4. Neese, F.
     Software update: The ORCA program system—Version 5.0
     WIRES Comput. Molec. Sci. 2022 12(1), e1606
     doi.org/10.1002/wcms.1606

List of optional additional citations

  1. Neese, F.
     Approximate second-order SCF convergence for spin unrestricted wavefunctions
     Chem. Phys. Lett. 2000 325(1-3), 93-98
     doi.org/10.1016/s0009-2614(00)00662-x

Timings for individual modules:

Sum of individual times          ...        0.854 sec (=   0.014 min)
Startup calculation              ...        0.079 sec (=   0.001 min)   9.2 %
SCF iterations                   ...        0.326 sec (=   0.005 min)  38.2 %
Property integrals               ...        0.232 sec (=   0.004 min)  27.2 %
SCF Response                     ...        0.156 sec (=   0.003 min)  18.3 %
Property calculations            ...        0.060 sec (=   0.001 min)   7.1 %
                             ****ORCA TERMINATED NORMALLY****
TOTAL RUN TIME: 0 days 0 hours 0 minutes 0 seconds 907 msec
