
                                 *****************
                                 * O   R   C   A *
                                 *****************

                                            #,                                       
                                            ###                                      
                                            ####                                     
                                            #####                                    
                                            ######                                   
                                           ########,                                 
                                     ,,################,,,,,                         
                               ,,#################################,,                 
                          ,,##########################################,,             
                       ,#########################################, ''#####,          
                    ,#############################################,,   '####,        
                  ,##################################################,,,,####,       
                ,###########''''           ''''###############################       
              ,#####''   ,,,,##########,,,,          '''####'''          '####       
            ,##' ,,,,###########################,,,                        '##       
           ' ,,###''''                  '''############,,,                           
         ,,##''                                '''############,,,,        ,,,,,,###''
      ,#''                                            '''#######################'''  
     '                                                          ''''####''''         
             ,#######,   #######,   ,#######,      ##                                
            ,#'     '#,  ##    ##  ,#'     '#,    #''#        ,####,    ,#,          
            ##       ##  ##   ,#'  ##            #'  '#       #'       ,# #          
            ##       ##  #######   ##           ,######,      #####,      #          
            '#,     ,#'  ##    ##  '#,     ,#' ,#      #,     #,   #      #          
             '#######'   ##     ##  '#######'  #'      '#     '####' #    #          



                #########################################################
                #                        -***-                          #
                #          Department of theory and spectroscopy        #
                #                                                       #
                #                      Frank Neese                      #
                #                                                       #
                #     Directorship, Architecture, Infrastructure        #
                #                    SHARK, DRIVERS                     #
                #        Core code/Algorithms in most modules           #
                #                                                       #
                #        Max Planck Institute fuer Kohlenforschung      #
                #                Kaiser Wilhelm Platz 1                 #
                #                 D-45470 Muelheim/Ruhr                 #
                #                      Germany                          #
                #                                                       #
                #                  All rights reserved                  #
                #                        -***-                          #
                #########################################################


                         Program Version 6.1.1  -  RELEASE   -
                                (GIT: $487d211c$)
                          ($2025-11-21 10:33:24 +0100$)


 With contributions from (in alphabetic order):
[Max-Planck-Institut fuer Kohlenforschung]                               
  Daniel Aravena         : Magnetic Suceptibility                        
  Michael Atanasov       : Ab Initio Ligand Field Theory (pilot matlab implementation)
  Alexander A. Auer      : GIAO ZORA, VPT2 properties, NMR spectrum      
  Ute Becker             : All parallelization in ORCA, NUMFREQ, NUMCALC 
  Giovanni Bistoni       : ED, misc. LED, open-shell LED, HFLD           
  Dmytro Bykov           : pre 5.0 version of the SCF Hessian            
  Marcos Casanova-Páez   : Triplet and SCS-CIS(D). UHF-(DLPNO)-IP/EA/STEOM-CCSD. UHF-CVS-IP/STEOM-CCSD   
  Vijay G. Chilkuri      : MRCI spin determinant printing, contributions to CSF-ICE 
  Pauline Colinet        : FMM embedding                                 
  Dipayan Datta          : RHF DLPNO-CCSD density                        
  Achintya Kumar Dutta   : EOM-CC, STEOM-CC                              
  Nicolas Foglia         : Exact transition moments, OPA infrastructure, MCD improvements    
  Dmitry Ganyushin       : Spin-Orbit,Spin-Spin,Magnetic field MRCI      
  Miquel Garcia-Rates    : C-PCM and meta-GGA Hessian, CCSD/C-PCM, Gaussian charge scheme 
  Tiago L. C. Gouveia    : GS-ROHF, GS-ROCIS                             
  Yang Guo               : DLPNO-NEVPT2, F12-NEVPT2, CIM, IAO-localization        
  Andreas Hansen         : Spin unrestricted coupled pair/coupled cluster methods 
  Ingolf Harden          : AUTO-CI MPn and infrastructure                
  Benjamin Helmich-Paris : MC-RPA, TRAH-(SCF,CASSCF), AVAS, COSX integrals, SCF dyn. polar., MC-PDFT, srDFT 
  Lee Huntington         : MR-EOM, pCC                                   
  Robert Izsak           : Overlap fitted RIJCOSX, COSX-SCS-MP3, EOM     
  Riya Kayal             : Wick's Theorem for AUTO-CI, AUTO-CI UHF-CCSDT 
  Emily Kempfer          : AUTO-CI RHF CISDT and CCSDT, approximate NEVPT4
  Christian Kollmar      : KDIIS, OOCD, Brueckner-CCSD(T), CCSD density, CASPT2, CASPT2-K, improved NEVPT2 
  Axel Koslowski         : Symmetry handling                             
  Simone Kossmann        : meta-GGA functionals, TD-DFT gradient, OOMP2, (MP2 Hessian; deprecated post 5.0) 
  Lucas Lang             : DCDCAS, Hyperfine gauge corrections, ICE-SOC+SSC
  Marvin Lechner         : AUTO-CI (C++ implementation), FIC-MRCC        
  Spencer Leger          : CASSCF response                               
  Dagmar Lenk            : GEPOL surface, SMD, ORCA-2-JSON               
  Dimitrios Liakos       : Extrapolation schemes; Compound Job, Property file
  Dimitrios Manganas     : Further ROCIS development; embedding schemes. LFT, Crystal Embedding 
  Dimitrios Pantazis     : SARC Basis sets                               
  Anastasios Papadopoulos: AUTO-CI, single reference methods and gradients 
  Taras Petrenko         : pre 6.0 DFT Hessian and TD-DFT gradient,  ECA, NRVS 
  Petra Pikulova         : Analytic Raman intensities                    
  Peter Pinski           : DLPNO-MP2, DLPNO-MP2 Gradient                 
  Shashank Vittal Rao    : ES-AILFT, MagRelax                            
  Christoph Reimann      : Effective Core Potentials                     
  Marius Retegan         : Local ZFS, SOC                                
  Christoph Riplinger    : Optimizer, TS searches, QM/MM, DLPNO-CCSD(T), (RO)-DLPNO pert. Triples 
  Michael Roemelt        : Original ROCIS implementation, recursive CI coupling coefficients
  Masaaki Saitow         : Open-shell DLPNO-CCSD energy and density      
  Barbara Sandhoefer     : DKH picture change effects                    
  Yorick L. A. Schmerwitz: GMF and freeze-and-release deltaSCF, NEB S-IDPP initial path                    
  Kantharuban Sivalingam : CASSCF convergence/infrastructure, NEVPT2, NEVPT3, NEVPT4(SD), FIC-MRCI and CEPA variants
  Bernardo de Souza      : ESD, SOC TD-DFT                               
  Georgi L. Stoychev     : AutoAux, RI-MP2 NMR, DLPNO-MP2 response, X2C  
  Van Anh Tran           : RI-MP2 g-tensors                              
  Willem Van den Heuvel  : Paramagnetic NMR                              
  Zikuan Wang            : NOTCH, Electric field optimization            
  Frank Wennmohs         : Technical directorship and infrastructure     
  Hang Xu                : AUTO-CI-Response properties                   
                                                                         
[FACCTs GmbH]                                                            
  Markus Bursch, Nicolas Foglia, Miquel Garcia-Rates, Ingolf Harden, Hagen Neugebauer, Anastasios Papadopoulos, 
  Christoph Riplinger, Bernardo de Souza, Georgi L. Stoychev                                                    
                                                                 
  APM, various basis sets, CI-OPT, improved COSX, DLPNO-Multilevel,           
  DOCKER, DRACO, updates on ESD, Fragmentator, GOAT, IRC, LR-CPCM, L-BFGS, MBIS, meta-GGA TD-DFT gradient, ML-optimized integration grids, 
  MM, NACMEs, nearIR, NEB, NEB-TS, NL-DFT gradient (VV10), 2- and 3-layer-ONIOM, interface openCOSMO-RS, QMMM,   
  Crystal-QMMM, RESP, rigid body optimization, SF, symmetry and pop. for TD-DFT, various functionals, SOLVATOR                                   
                                                                         
[Other institutions]                                                     
  V. Asgeirsson          : NEB                                           
  Christoph Bannwarth    : sTDA-DFT, sTD-DFT, PBEh-3c, B97-3c, D3        
  Giovanni Bistoni       : ETS/NOCV, ADLD/ADEX, COVALED                  
  Martin Brehm           : Molecular dynamics                            
  Ronald Cardenas        : ETS/NOCV                                      
  Martina Colucci        : COVALED                                       
  Sebastian Ehlert       : rSCAN, r2SCAN, r2SCAN-3c, D4, dhf basis sets  
  Marvin Friede          : D4 for Fr, Ra, Ac-Lr                          
  Lars Goerigk           : TD-DFT with DH, B97 family of functionals     
  Stefan Grimme          : VdW corrections, initial TS optimization, DFT functionals, gCP, sTDA/sTD-DF 
  Waldemar Hujo          : DFT-NL                                        
  H. Jonsson             : NEB                                           
  Holger Kruse           : gCP                                           
  Marcel Mueller         : wB97X-3c, vDZP basis set                      
  Hagen Neugebauer       : wr2SCAN, Native XTB                           
  Gianluca Regni         : ADLD/ADEX                                     
  Tobias Risthaus        : pre 6.0 range-separated hybrid DFT and stability analysis
  Lukas Wittmann         : regularized MP2, r2SCAN double-hybrids, wr2SCAN        
                                                                         
We gratefully acknowledge several colleagues who have allowed us to      
interface, adapt or use parts of their codes:                            
  Ed Valeev, F. Pavosevic, A. Kumar             : LibInt (2-el integral package), F12 methods 
  Garnet Chan, S. Sharma, J. Yang, R. Olivares  : DMRG                   
  Ulf Ekstrom                                   : XCFun DFT Library      
  Mihaly Kallay                                 : mrcc  (arbitrary order and MRCC methods)
  Frank Weinhold                                : gennbo (NPA and NBO analysis)           
  Simon Mueller                                 : openCOSMO-RS                            
  Christopher J. Cramer and Donald G. Truhlar   : smd solvation model                     
  S Lehtola, MJT Oliveira, MAL Marques          : LibXC Library                           
  Liviu Ungur et al                             : ANISO software                          


 Your calculation uses the libint2 library for the computation of 2-el integrals
 For citations please refer to: http://libint.valeyev.net

 Your ORCA version has been built with support for libXC version: 7.0.0
 For citations please refer to: https://libxc.gitlab.io

 This ORCA versions uses:
   CBLAS   interface :  Fast vector & matrix operations
   LAPACKE interface :  Fast linear algebra routines
   SCALAPACK package :  Parallel linear algebra routines
   Shared memory     :  Shared parallel matrices
   BLAS/LAPACK       :  OpenBLAS 0.3.29  USE64BITINT DYNAMIC_ARCH NO_AFFINITY Cooperlake SINGLE_THREADED
        Core in use  :  Cooperlake
   Copyright (c) 2011-2014, The OpenBLAS Project


  ***********************************
  * Starting time: Wed Jun 24 18:14:31 2026
  * Host name:     DESKTOP-DC1WS01
  * Process ID:    125111
  * Working dir.:  /mnt/work-disk/work/o2-opt_orb.res
  ***********************************

NOTE: MaxCore=2000 MB was set to SCF,MP2,MDCI,CIPSI,MRCI,RASCI and CIS
      => If you want to overwrite this, your respective input block should be placed after the MaxCore statement
================================================================================

----- Orbital basis set information -----
Your calculation utilizes the basis: def2-SVP
   F. Weigend and R. Ahlrichs, Phys. Chem. Chem. Phys. 7, 3297 (2005).

----- AuxJ basis set information -----
Your calculation utilizes the auxiliary basis: def2/J
   H-Rn: F. Weigend, Phys. Chem. Chem. Phys. 8, 1057 (2006).
   Fr-Lr: K. Eichkorn, F. Weigend, O. Treutler, R. Ahlrichs; Theor. Chem. Acc. 97, 119 (1997).

================================================================================
                                        WARNINGS
                       Please study these warnings very carefully!
================================================================================


WARNING: Geometry Optimization
  ===> : Switching off AutoStart
         For restart on a previous wavefunction, please use MOREAD

================================================================================
                                       INPUT FILE
================================================================================
NAME = o2-opt_orb.inp
|  1> # Generated by MoleditPy ORCA Input Generator Pro Plugin
|  2> %pal nprocs 4 end
|  3> %maxcore 2000
|  4> 
|  5> ! PBE0 def2-SVP RIJCOSX Def2/J Opt Freq UKS
|  6> 
|  7> %output
|  8>   Print[P_Basis] 2
|  9>   Print[P_Mos] 1
| 10> end
| 11> 
| 12> * xyz 0 3
| 13>   O        0.575465     0.000000     0.000000
| 14>   O       -0.575465     0.000000     0.000000
| 15> *
| 16> 
| 17>                          ****END OF INPUT****
================================================================================

                       *****************************
                       * Geometry Optimization Run *
                       *****************************

Geometry optimization settings:
Update method            Update   .... BFGS
Choice of coordinates    CoordSys .... (2022) Redundant Internals
Initial Hessian          InHess   .... Almloef's Model
Max. no of cycles        MaxIter  .... 50

Convergence Tolerances:
Energy Change            TolE     ....  5.0000e-06 Eh
Max. Gradient            TolMAXG  ....  3.0000e-04 Eh/bohr
RMS Gradient             TolRMSG  ....  1.0000e-04 Eh/bohr
Max. Displacement        TolMAXD  ....  4.0000e-03 bohr
RMS Displacement         TolRMSD  ....  2.0000e-03 bohr
Strict Convergence                .... False

------------------------------------------------------------------------------
                        ORCA OPTIMIZATION COORDINATE SETUP
------------------------------------------------------------------------------

The optimization will be done in redundant internal coordinates (2022)
Making redundant internal coordinates   ...  (2022 redundants) done
Evaluating the initial hessian          ...  (Almloef) done
Evaluating the coordinates              ...  done
Calculating the B-matrix                .... done
Calculating the G-matrix                .... done
The number of degrees of freedom        ....    1

    -----------------------------------------------------------------
                    Redundant Internal Coordinates


    -----------------------------------------------------------------
         Definition                    Initial Value    Approx d2E/dq
    -----------------------------------------------------------------
      1. B(O   1,O   0)                  1.1509         1.206239   
    -----------------------------------------------------------------

Number of atoms                         .... 2
Number of degrees of freedom            .... 1


         *************************************************************
         *                GEOMETRY OPTIMIZATION CYCLE   1            *
         *************************************************************
---------------------------------
CARTESIAN COORDINATES (ANGSTROEM)
---------------------------------
  O      0.575465    0.000000    0.000000
  O     -0.575465    0.000000    0.000000

----------------------------
CARTESIAN COORDINATES (A.U.)
----------------------------
  NO LB      ZA    FRAG     MASS         X           Y           Z
   0 O     8.0000    0    15.999    1.087471    0.000000    0.000000
   1 O     8.0000    0    15.999   -1.087471    0.000000    0.000000

--------------------------------
INTERNAL COORDINATES (ANGSTROEM)
--------------------------------
 O      0   0   0     0.000000000000     0.00000000     0.00000000
 O      1   0   0     1.150930000000     0.00000000     0.00000000

---------------------------
INTERNAL COORDINATES (A.U.)
---------------------------
 O      0   0   0     0.000000000000     0.00000000     0.00000000
 O      1   0   0     2.174942499314     0.00000000     0.00000000

---------------------
BASIS SET INFORMATION
---------------------
There are 1 groups of distinct atoms

 Group   1 Type O   : 7s4p1d contracted to 3s2p1d pattern {511/31/1}

Atom   0O    basis set group =>   1
Atom   1O    basis set group =>   1

-------------------------
BASIS SET IN INPUT FORMAT
-------------------------

 # Basis set for element : O 
 NewGTO O 
 S 5 
   1    2266.1767785000     -0.0053893504
   2     340.8701019100     -0.0402347214
   3      77.3631351670     -0.1800818421
   4      21.4796449400     -0.4682885766
   5       6.6589433124     -0.4469261716
 S 1 
   1       0.8097597567      1.0000000000
 S 1 
   1       0.2553077223      1.0000000000
 P 3 
   1      17.7215043170      0.0626302488
   2       3.8635505440      0.3333113849
   3       1.0480920883      0.7414863830
 P 1 
   1       0.2764154441      1.0000000000
 D 1 
   1       1.2000000000      1.0000000000
  end;

---------------------------------
AUXILIARY/J BASIS SET INFORMATION
---------------------------------
There are 1 groups of distinct atoms

 Group   1 Type O   : 12s5p4d2f1g contracted to 6s4p3d1f1g pattern {711111/2111/211/2/1}

Atom   0O    basis set group =>   1
Atom   1O    basis set group =>   1

-------------------------------------
AUXILIARY/J BASIS SET IN INPUT FORMAT
-------------------------------------

 # Auxiliary/J basis set for element : O 
 NewAuxJGTO O 
 S 7 
   1    2876.8216605000      0.0168151159
   2    1004.7443032000      0.0340137548
   3     369.7579954000      0.1194951309
   4     142.9442404000      0.2664627624
   5      57.8366425000      0.4202764046
   6      24.3864983000      0.2765077335
   7      10.6622662000      0.0057008815
 S 1 
   1       4.8070437000     -1.0000000000
 S 1 
   1       2.2210770000      1.0000000000
 S 1 
   1       1.0447795000      1.0000000000
 S 1 
   1       0.4968425000      1.0000000000
 S 1 
   1       0.2371384000      1.0000000000
 P 2 
   1      64.2613382000     -0.2731534179
   2      16.3006076000     -0.8168011598
 P 1 
   1       4.3550542000      1.0000000000
 P 1 
   1       1.2019554000      1.0000000000
 P 1 
   1       0.3354196000      1.0000000000
 D 2 
   1       9.2146611000     -0.4661230638
   2       2.8435251000     -0.6600908911
 D 1 
   1       0.9955759000     -1.0000000000
 D 1 
   1       0.3649441000     -1.0000000000
 F 2 
   1       2.6420115000      0.5931563945
   2       0.7345613000      0.5931563945
 G 1 
   1       1.3931000000     -1.0000000000
  end;



           ************************************************************
           *        Program running with 4 parallel MPI-processes     *
           *              working on a common directory               *
           ************************************************************
------------------------------------------------------------------------------
                             ORCA STARTUP CALCULATIONS
                           -- RI-GTO INTEGRALS CHOSEN --
------------------------------------------------------------------------------
------------------------------------------------------------------------------
                   ___                                                        
                  /   \      - P O W E R E D   B Y -                         
                 /     \                                                     
                 |  |  |   _    _      __       _____    __    __             
                 |  |  |  | |  | |    /  \     |  _  \  |  |  /  |          
                  \  \/   | |  | |   /    \    | | | |  |  | /  /          
                 / \  \   | |__| |  /  /\  \   | |_| |  |  |/  /          
                |  |  |   |  __  | /  /__\  \  |    /   |      \           
                |  |  |   | |  | | |   __   |  |    \   |  |\   \          
                \     /   | |  | | |  |  |  |  | |\  \  |  | \   \       
                 \___/    |_|  |_| |__|  |__|  |_| \__\ |__|  \__/        
                                                                              
                      - O R C A' S   B I G   F R I E N D -                    
                                      &                                       
                       - I N T E G R A L  F E E D E R -                       
                                                                              
 v1 FN, 2020, v2 2021, v3 2022-2024                                           
------------------------------------------------------------------------------


----------------------
SHARK INTEGRAL PACKAGE
----------------------

Number of atoms                             ...      2
Number of basis functions                   ...     28
Number of shells                            ...     12
Maximum angular momentum                    ...      2
Integral batch strategy                     ... SHARK/LIBINT Hybrid
RI-J (if used) integral strategy            ... SPLIT-RIJ (Revised 2003 algorithm where possible)
Printlevel                                  ...      1
Contraction scheme used                     ... SEGMENTED contraction
Prescreening option                         ... SCHWARTZ
   Thresh                                   ... 2.500e-11
   Tcut                                     ... 2.500e-12
   Tpresel                                  ... 2.500e-12 
Coulomb Range Separation                    ... NOT USED
Exchange Range Separation                   ... NOT USED
Multipole approximations                    ... NOT USED
Finite Nucleus Model                        ... NOT USED
CABS basis                                  ... NOT available
Auxiliary Coulomb fitting basis             ... AVAILABLE
   # of basis functions in Aux-J            ...     98
   # of shells in Aux-J                     ...     30
   Maximum angular momentum in Aux-J        ...      4
Auxiliary J/K fitting basis                 ... NOT available
Auxiliary Correlation fitting basis         ... NOT available
Auxiliary 'external' fitting basis          ... NOT available

Checking pre-screening integrals            ... done (  0.0 sec) Dimension = 12
   => SHARK Basis and OBASIS are compatible. Storing Pre-screening
Shell pair information
Shell pair cut-off parameter TPreSel        ...   2.5e-12
Total number of shell pairs                 ...        78
Shell pairs after pre-screening             ...        78
Total number of primitive shell pairs       ...       326
Primitive shell pairs kept                  ...       297
          la=0 lb=0:     21 shell pairs
          la=1 lb=0:     24 shell pairs
          la=1 lb=1:     10 shell pairs
          la=2 lb=0:     12 shell pairs
          la=2 lb=1:      8 shell pairs
          la=2 lb=2:      3 shell pairs

Checking whether 4 symmetric matrices of dimension 28 fit in memory
:Max Core in MB      =   2000.00
 MB in use           =      3.24
 MB left             =   1996.76
 MB needed           =      0.01
 Data fit in memory  = YES
Calculating RI/J V-Matrix + Cholesky decomp.... done (  0.0 sec)
Calculating Nuclear repulsion               ... done (  0.0 sec) ENN=     29.426065296065 Eh

Diagonalization of the overlap matrix:
Smallest eigenvalue                        ... 1.192e-02
Time for diagonalization                   ...    0.000 sec
Threshold for overlap eigenvalues          ... 1.000e-07
Number of eigenvalues below threshold      ... 0
Time for construction of square roots      ...    0.000 sec
Total time needed                          ...    0.000 sec

-------------------
DFT GRID GENERATION
-------------------

General Integration Accuracy     IntAcc      ... 4.388
Radial Grid Type                 RadialGrid  ... OptM3 with GC (2021)
Angular Grid (max. ang.)         AngularGrid ... 4 (Lebedev-302)
Angular grid pruning method      GridPruning ... 4 (adaptive)
Weight generation scheme         WeightScheme... mBecke (2022)
Basis function cutoff            BFCut       ... 1.0000e-11
Integration weight cutoff        WCut        ... 1.0000e-14
Partially contracted basis set               ... off
Rotationally invariant grid construction     ... off
Angular grids for H and He will be reduced by one unit

Total number of grid points                  ...    12258
Total number of batches                      ...      192
Average number of points per batch           ...       63
Average number of grid points per atom       ...     6129

--------------------
COSX GRID GENERATION
--------------------

GRIDX 1
-------
General Integration Accuracy     IntAcc      ... 3.816
Radial Grid Type                 RadialGrid  ... OptM3 with GC (2021)
Angular Grid (max. ang.)         AngularGrid ... 1 (Lebedev-50)
Angular grid pruning method      GridPruning ... 4 (adaptive)
Weight generation scheme         WeightScheme... mBecke (2022)
Basis function cutoff            BFCut       ... 1.0000e-11
Integration weight cutoff        WCut        ... 1.0000e-14
Partially contracted basis set               ... on
Rotationally invariant grid construction     ... off
Angular grids for H and He will be reduced by one unit

Total number of grid points                  ...     1534
Total number of batches                      ...       12
Average number of points per batch           ...      127
Average number of grid points per atom       ...      767
UseSFitting                                  ... on

GRIDX 2
-------
General Integration Accuracy     IntAcc      ... 4.020
Radial Grid Type                 RadialGrid  ... OptM3 with GC (2021)
Angular Grid (max. ang.)         AngularGrid ... 2 (Lebedev-110)
Angular grid pruning method      GridPruning ... 4 (adaptive)
Weight generation scheme         WeightScheme... mBecke (2022)
Basis function cutoff            BFCut       ... 1.0000e-11
Integration weight cutoff        WCut        ... 1.0000e-14
Partially contracted basis set               ... on
Rotationally invariant grid construction     ... off
Angular grids for H and He will be reduced by one unit

Total number of grid points                  ...     3764
Total number of batches                      ...       30
Average number of points per batch           ...      125
Average number of grid points per atom       ...     1882
UseSFitting                                  ... on

GRIDX 3
-------
General Integration Accuracy     IntAcc      ... 4.338
Radial Grid Type                 RadialGrid  ... OptM3 with GC (2021)
Angular Grid (max. ang.)         AngularGrid ... 3 (Lebedev-194)
Angular grid pruning method      GridPruning ... 4 (adaptive)
Weight generation scheme         WeightScheme... mBecke (2022)
Basis function cutoff            BFCut       ... 1.0000e-11
Integration weight cutoff        WCut        ... 1.0000e-14
Partially contracted basis set               ... on
Rotationally invariant grid construction     ... off
Angular grids for H and He will be reduced by one unit

Total number of grid points                  ...     8422
Total number of batches                      ...       66
Average number of points per batch           ...      127
Average number of grid points per atom       ...     4211
UseSFitting                                  ... on
Grids setup in   0.0 sec
Initializing property integral containers    ... done (  0.0 sec)

SHARK setup successfully completed in   0.1 seconds

Maximum memory used throughout the entire STARTUP-calculation: 8.8 MB


           ************************************************************
           *        Program running with 4 parallel MPI-processes     *
           *              working on a common directory               *
           ************************************************************
-------------------------------------------------------------------------------
                                 ORCA GUESS
                   Start orbitals & Density for SCF / CASSCF
-------------------------------------------------------------------------------

------------
SCF SETTINGS
------------
Hamiltonian:
 Density Functional     Method          .... DFT(GTOs)
 Exchange Functional    Exchange        .... PBE
   PBE kappa parameter   XKappa         ....  0.804000
   PBE mue parameter    XMuePBE         ....  0.219520
 Correlation Functional Correlation     .... PBE
   PBE beta parameter  CBetaPBE         ....  0.066725
 LDA part of GGA corr.  LDAOpt          .... PW91-LDA
 Gradients option       PostSCFGGA      .... off
 Hybrid DFT is turned on
   Fraction HF Exchange ScalHFX         ....  0.250000
   Scaling of DF-GGA-X  ScalDFX         ....  0.750000
   Scaling of DF-GGA-C  ScalDFC         ....  1.000000
   Scaling of DF-LDA-C  ScalLDAC        ....  1.000000
   Perturbative correction              ....  0.000000
   NL short-range parameter             ....  6.900000
 RI-approximation to the Coulomb term is turned on
   Number of AuxJ basis functions       .... 98
   RIJ-COSX (HFX calculated with COS-X)).... on


General Settings:
 Integral files         IntName         .... o2-opt_orb
 Hartree-Fock type      HFTyp           .... UHF
 Total Charge           Charge          ....    0
 Multiplicity           Mult            ....    3
 Number of Electrons    NEL             ....   16
 Basis Dimension        Dim             ....   28
 Nuclear Repulsion      ENuc            ....     29.4260652961 Eh

Convergence Acceleration:
 AO-DIIS                CNVDIIS         .... on
   Start iteration      DIISMaxIt       ....    12
   Startup error        DIISStart       ....  0.200000
   # of expansion vecs  DIISMaxEq       ....     5
   Bias factor          DIISBfac        ....   1.050
   Max. coefficient     DIISMaxC        ....  10.000
 MO-DIIS                CNVKDIIS        .... off
 Trust-Rad. Augm. Hess. CNVTRAH         .... auto
   Auto Start mean grad. ratio tolernc. ....  1.125000
   Auto Start start iteration           ....    50
   Auto Start num. interpolation iter.  ....    10
   Max. Number of Micro iterations      ....    24
   Max. Number of Macro iterations      .... Maxiter - #DIIS iter
   Number of Davidson start vectors     ....     2
   Converg. threshold    (grad. norm)   ....   1.000e-05
   Grad. Scal. Fac. for Micro threshold ....   0.100
   Minimum threshold for Micro iter.    ....   1.000e-02
   NR start threshold (gradient norm)   ....   1.000e-04
   Initial trust radius                 ....   0.400
   Minimum AH scaling param. (alpha)    ....   1.000
   Maximum AH scaling param. (alpha)    .... 1000.000
   Quad. conv. algorithm                .... NR
   White noise on init. David. guess    .... on
   Maximum white noise                  ....   0.010
   Pseudo random numbers                .... off
   Inactive MOs                         .... canonical
   Orbital update algorithm             .... Taylor
   Preconditioner                       .... Diag
   Full preconditioner red. dimension   ....   250
 SOSCF                 CNVSOSCF           .... on
   Start iteration     SOSCFMaxIt         ....   150
   Startup grad/error  SOSCFStart         ....  0.003300
   Hessian update      SOSCFHessUp        .... L-BFGS
   Autom. constraints  SOSCFAutoConstrain .... off
 Level Shifting         CNVShift        .... on
   Level shift para.    LevelShift      ....    0.2500
   Turn off err/grad.   ShiftErr        ....    0.0010
 Zerner damping         CNVZerner       .... off
 Static damping         CNVDamp         .... on
   Fraction old density DampFac         ....    0.7000
   Max. Damping (<1)    DampMax         ....    0.9800
   Min. Damping (>=0)   DampMin         ....    0.0000
   Turn off err/grad.   DampErr         ....    0.1000

SCF Procedure:
 Maximum # iterations   MaxIter         ....   125
 SCF integral mode      SCFMode         .... Direct
   Integral package                     .... SHARK and LIBINT hybrid scheme
 Reset frequency        DirectResetFreq ....    20
 Integral Threshold     Thresh          ....  2.500e-11 Eh
 Primitive CutOff       TCut            ....  2.500e-12 Eh

Convergence Tolerance:
 Convergence Check Mode ConvCheckMode   .... Total+1el-Energy
 Convergence forced     ConvForced      .... 0
 Energy Change          TolE            ....  1.000e-08 Eh
 1-El. energy change                    ....  1.000e-05 Eh
 Orbital Gradient       TolG            ....  1.000e-05
 Orbital Rotation angle TolX            ....  1.000e-05
 DIIS Error             TolErr          ....  5.000e-07

------------------------------
INITIAL GUESS: MODEL POTENTIAL
------------------------------
Loading Hartree-Fock densities                     ... done
Calculating cut-offs                               ... done
Initializing the effective Hamiltonian             ... done
Setting up the integral package (SHARK)            ... done
Starting the Coulomb interaction                   ... done (   0.0 sec)
Making the grid                                    ... done (   0.0 sec)
Mapping shells                                     ... done
Starting the XC term evaluation                    ... done (   0.0 sec)
  promolecular density results
     # of electrons  =     16.000020375
     EX              =    -16.249500550
     EC              =     -0.538469929
     EX+EC           =    -16.787970480
Transforming the Hamiltonian                       ... done (   0.0 sec)
Diagonalizing the Hamiltonian                      ... done (   0.0 sec)
Back transforming the eigenvectors                 ... done (   0.0 sec)
Now organizing SCF variables                       ... done
                      ------------------
                      INITIAL GUESS DONE (   0.0 sec)
                      ------------------
             **** ENERGY FILE WAS UPDATED (o2-opt_orb.en.tmp) ****
Finished Guess after   0.0 sec
Maximum memory used throughout the entire GUESS-calculation: 5.4 MB


           ************************************************************
           *        Program running with 4 parallel MPI-processes     *
           *              working on a common directory               *
           ************************************************************

-------------------------------------------------------------------------------------------
                                      ORCA LEAN-SCF
                              memory conserving SCF solver
-------------------------------------------------------------------------------------------

----------------------------------------D-I-I-S--------------------------------------------
Iteration    Energy (Eh)           Delta-E    RMSDP     MaxDP     DIISErr   Damp  Time(sec)
-------------------------------------------------------------------------------------------
               ***  Starting incremental Fock matrix formation  ***
    1    -150.0392967795533536     0.00e+00  2.69e-03  1.03e-02  3.38e-02  0.700   0.0
    2    -150.0425848606748218    -3.29e-03  2.15e-03  7.94e-03  2.24e-02  0.700   0.0
                               ***Turning on AO-DIIS***
    3    -150.0447666861333573    -2.18e-03  1.38e-03  4.21e-03  1.42e-02  0.700   0.0
    4    -150.0462578017704800    -1.49e-03  3.41e-03  1.11e-02  9.87e-03  0.000   0.0
                              *** Initializing SOSCF ***
---------------------------------------S-O-S-C-F--------------------------------------
Iteration    Energy (Eh)           Delta-E    RMSDP     MaxDP     MaxGrad    Time(sec)
--------------------------------------------------------------------------------------
    5    -150.0498523958651731    -3.59e-03  3.50e-04  1.68e-03  1.11e-03     0.0
               *** Restarting incremental Fock matrix formation ***
    6    -150.0498676460847207    -1.53e-05  1.29e-04  4.45e-04  4.73e-04     0.0
    7    -150.0498690051670394    -1.36e-06  5.09e-05  2.81e-04  2.21e-04     0.0
    8    -150.0498691187476936    -1.14e-07  1.37e-05  6.72e-05  9.69e-05     0.0
    9    -150.0498691414514099    -2.27e-08  1.13e-06  5.20e-06  3.87e-06     0.0
   10    -150.0498691414243240     2.71e-11  2.31e-07  1.09e-06  1.38e-06     0.0
                 **** Energy Check signals convergence ****

               *****************************************************
               *                     SUCCESS                       *
               *           SCF CONVERGED AFTER  10 CYCLES          *
               *****************************************************

Recomputing exchange energy using gridx3       ... done (    0.025 sec)
Old exchange energy                            :     -4.092489477 Eh
New exchange energy                            :     -4.092472642 Eh
Exchange energy change after final integration :      0.000016835 Eh
Total energy after final integration           :   -150.049852307 Eh
             **** ENERGY FILE WAS UPDATED (o2-opt_orb.en.tmp) ****

----------------
TOTAL SCF ENERGY
----------------

Total Energy       :       -150.04985230684031 Eh           -4083.06406 eV

Components:
Nuclear Repulsion  :         29.42606529606492 Eh             800.72394 eV
Electronic Energy  :       -179.47593443760263 Eh           -4883.78846 eV
One Electron Energy:       -264.25382732576679 Eh           -7190.71221 eV
Two Electron Energy:         84.77789288816415 Eh            2306.92375 eV

Virial components:
Potential Energy   :       -299.68046906827061 Eh           -8154.72014 eV
Kinetic Energy     :        149.63061676143030 Eh            4071.65608 eV
Virial Ratio       :          2.00280180323041

DFT components:
N(Alpha)           :        8.999999064353 electrons
N(Beta)            :        6.999999288036 electrons
N(Total)           :       15.999998352389 electrons
E(X)               :      -12.303560241738 Eh       
E(C)               :       -0.536060922413 Eh       
E(XC)              :      -12.839621164152 Eh       

---------------
SCF CONVERGENCE
---------------

  Last Energy change         ...   -2.7086e-11  Tolerance :   1.0000e-08
  Last MAX-Density change    ...    1.0925e-06  Tolerance :   1.0000e-07
  Last RMS-Density change    ...    2.3150e-07  Tolerance :   5.0000e-09
  Last DIIS Error            ...    1.1128e-03  Tolerance :   5.0000e-07
  Last Orbital Gradient      ...    1.3822e-06  Tolerance :   1.0000e-05
  Last Orbital Rotation      ...    6.3534e-07  Tolerance :   1.0000e-05


----------------------
UHF SPIN CONTAMINATION
----------------------

Warning: in a DFT calculation there is little theoretical justification to 
         calculate <S**2> as in Hartree-Fock theory. We will do it anyways
         but you should keep in mind that the values have only limited relevance

Expectation value of <S**2>     :     2.006668
Ideal value S*(S+1) for S=1.0   :     2.000000
Deviation                       :     0.006668

----------------
ORBITAL ENERGIES
----------------
                 SPIN UP ORBITALS
  NO   OCC          E(Eh)            E(eV) 
   0   1.0000     -19.357272      -526.7382 
   1   1.0000     -19.357103      -526.7336 
   2   1.0000      -1.377129       -37.4736 
   3   1.0000      -0.827290       -22.5117 
   4   1.0000      -0.606918       -16.5151 
   5   1.0000      -0.606918       -16.5151 
   6   1.0000      -0.573355       -15.6018 
   7   1.0000      -0.305062        -8.3012 
   8   1.0000      -0.305062        -8.3012 
   9   0.0000       0.312149         8.4940 
  10   0.0000       0.733801        19.9677 
  11   0.0000       0.827952        22.5297 
  12   0.0000       0.827952        22.5297 
  13   0.0000       0.858274        23.3548 
  14   0.0000       0.891914        24.2702 
  15   0.0000       0.948261        25.8035 
  16   0.0000       0.948261        25.8035 
  17   0.0000       1.196342        32.5541 
  18   0.0000       2.082826        56.6766 
  19   0.0000       2.082826        56.6766 

                 SPIN DOWN ORBITALS
  NO   OCC          E(Eh)            E(eV) 
   0   1.0000     -19.325295      -525.8680 
   1   1.0000     -19.325232      -525.8663 
   2   1.0000      -1.320091       -35.9215 
   3   1.0000      -0.732911       -19.9435 
   4   1.0000      -0.529785       -14.4162 
   5   1.0000      -0.494856       -13.4657 
   6   1.0000      -0.494856       -13.4657 
   7   0.0000      -0.077736        -2.1153 
   8   0.0000      -0.077736        -2.1153 
   9   0.0000       0.360609         9.8127 
  10   0.0000       0.762687        20.7538 
  11   0.0000       0.883867        24.0512 
  12   0.0000       0.889400        24.2018 
  13   0.0000       0.889400        24.2018 
  14   0.0000       0.905867        24.6499 
  15   0.0000       1.014579        27.6081 
  16   0.0000       1.014579        27.6081 
  17   0.0000       1.232147        33.5284 
*Only the first 10 virtual orbitals were printed.
------------------------
MOLECULAR ORBITALS (UHF)
------------------------
                      0         1         2         3         4         5   
                 -19.35727 -19.35710  -1.37713  -0.82729  -0.60692  -0.60692
                   1.00000   1.00000   1.00000   1.00000   1.00000   1.00000
                  --------  --------  --------  --------  --------  --------
  0O   1s        -0.699006  0.699623 -0.206718  0.220505  0.000000  0.000000
  0O   2s         0.028281 -0.025559 -0.425671  0.469904  0.000000  0.000000
  0O   3s        -0.018609  0.007931 -0.161206  0.397028 -0.000000  0.000000
  0O   1pz       -0.000000  0.000000 -0.000000 -0.000000  0.303134 -0.361643
  0O   1px       -0.003059  0.000847  0.196826  0.143420 -0.000000  0.000000
  0O   1py       -0.000000 -0.000000  0.000000 -0.000000 -0.361643 -0.303134
  0O   2pz       -0.000000  0.000000 -0.000000  0.000000  0.162059 -0.193338
  0O   2px        0.005365 -0.001314  0.042563  0.038096 -0.000000  0.000000
  0O   2py       -0.000000 -0.000000  0.000000 -0.000000 -0.193338 -0.162059
  0O   1dz2      -0.000875 -0.000543  0.010001  0.007091  0.000000  0.000000
  0O   1dxz      -0.000000 -0.000000  0.000000  0.000000 -0.020463  0.024412
  0O   1dyz      -0.000000 -0.000000  0.000000  0.000000  0.000000  0.000000
  0O   1dx2y2     0.001516  0.000940 -0.017323 -0.012282 -0.000000 -0.000000
  0O   1dxy      -0.000000 -0.000000 -0.000000 -0.000000  0.024412  0.020463
  1O   1s         0.699012  0.699618 -0.206718 -0.220505 -0.000000  0.000000
  1O   2s        -0.028281 -0.025559 -0.425671 -0.469904 -0.000000  0.000000
  1O   3s         0.018609  0.007931 -0.161206 -0.397028 -0.000000  0.000000
  1O   1pz        0.000000 -0.000000  0.000000 -0.000000  0.303134 -0.361643
  1O   1px       -0.003059 -0.000847 -0.196826  0.143420  0.000000 -0.000000
  1O   1py        0.000000 -0.000000  0.000000 -0.000000 -0.361643 -0.303134
  1O   2pz        0.000000 -0.000000  0.000000 -0.000000  0.162059 -0.193338
  1O   2px        0.005365  0.001314 -0.042563  0.038096  0.000000 -0.000000
  1O   2py        0.000000 -0.000000  0.000000 -0.000000 -0.193338 -0.162059
  1O   1dz2       0.000875 -0.000543  0.010001 -0.007091 -0.000000  0.000000
  1O   1dxz      -0.000000  0.000000 -0.000000  0.000000  0.020463 -0.024412
  1O   1dyz       0.000000 -0.000000  0.000000 -0.000000  0.000000  0.000000
  1O   1dx2y2    -0.001516  0.000940 -0.017323  0.012282  0.000000 -0.000000
  1O   1dxy       0.000000 -0.000000  0.000000 -0.000000 -0.024412 -0.020463
                      6         7         8         9        10        11   
                  -0.57335  -0.30506  -0.30506   0.31215   0.73380   0.82795
                   1.00000   1.00000   1.00000   0.00000   0.00000   0.00000
                  --------  --------  --------  --------  --------  --------
  0O   1s        -0.078482  0.000000  0.000000  0.137920 -0.214075  0.000000
  0O   2s        -0.142538 -0.000000 -0.000000  0.344029 -1.153658  0.000000
  0O   3s        -0.257857  0.000000  0.000000  1.369108  0.978330 -0.000000
  0O   1pz       -0.000000 -0.505249 -0.191964 -0.000000  0.000000  0.589773
  0O   1px       -0.467360  0.000000  0.000000 -0.496042 -0.092589 -0.000000
  0O   1py       -0.000000 -0.191964  0.505249  0.000000 -0.000000  0.290154
  0O   2pz       -0.000000 -0.377950 -0.143598  0.000000  0.000000 -0.567077
  0O   2px       -0.214616  0.000000  0.000000 -1.224444 -0.016212  0.000000
  0O   2py       -0.000000 -0.143598  0.377950 -0.000000 -0.000000 -0.278988
  0O   1dz2      -0.013203  0.000000  0.000000  0.014338  0.028320  0.000000
  0O   1dxz       0.000000 -0.005485 -0.002084  0.000000  0.000000 -0.039554
  0O   1dyz       0.000000  0.000000 -0.000000  0.000000  0.000000  0.000000
  0O   1dx2y2     0.022869 -0.000000 -0.000000 -0.024834 -0.049052 -0.000000
  0O   1dxy       0.000000 -0.002084  0.005485  0.000000  0.000000 -0.019459
  1O   1s        -0.078482 -0.000000  0.000000 -0.137920 -0.214075  0.000000
  1O   2s        -0.142538  0.000000 -0.000000 -0.344029 -1.153658  0.000000
  1O   3s        -0.257857 -0.000000  0.000000 -1.369108  0.978330  0.000000
  1O   1pz       -0.000000  0.505249  0.191964  0.000000  0.000000  0.589773
  1O   1px        0.467360  0.000000  0.000000 -0.496042  0.092589 -0.000000
  1O   1py       -0.000000  0.191964 -0.505249  0.000000  0.000000  0.290154
  1O   2pz       -0.000000  0.377950  0.143598  0.000000 -0.000000 -0.567077
  1O   2px        0.214616  0.000000  0.000000 -1.224444  0.016212  0.000000
  1O   2py       -0.000000  0.143598 -0.377950  0.000000 -0.000000 -0.278988
  1O   1dz2      -0.013203 -0.000000 -0.000000 -0.014338  0.028320 -0.000000
  1O   1dxz      -0.000000 -0.005485 -0.002084  0.000000 -0.000000  0.039554
  1O   1dyz       0.000000  0.000000  0.000000 -0.000000  0.000000 -0.000000
  1O   1dx2y2     0.022869  0.000000  0.000000  0.024834 -0.049052  0.000000
  1O   1dxy      -0.000000 -0.002084  0.005485  0.000000  0.000000  0.019459
                     12        13        14        15        16        17   
                   0.82795   0.85827   0.89191   0.94826   0.94826   1.19634
                   0.00000   0.00000   0.00000   0.00000   0.00000   0.00000
                  --------  --------  --------  --------  --------  --------
  0O   1s        -0.000000 -0.100119 -0.008991 -0.000000 -0.000000  0.183145
  0O   2s        -0.000000 -0.536861  0.108618 -0.000000  0.000000  1.261715
  0O   3s         0.000000 -0.101843  0.147775  0.000000 -0.000000 -4.721552
  0O   1pz       -0.290154 -0.000000 -0.000000 -0.553723  0.302736 -0.000000
  0O   1px        0.000000 -0.624743 -0.556120  0.000000 -0.000000 -0.277975
  0O   1py        0.589773 -0.000000 -0.000000  0.302736  0.553723  0.000000
  0O   2pz        0.278988  0.000000  0.000000  0.957253 -0.523357  0.000000
  0O   2px       -0.000000  0.969264  0.850164 -0.000000  0.000000  2.610298
  0O   2py       -0.567077  0.000000  0.000000 -0.523357 -0.957253 -0.000000
  0O   1dz2      -0.000000  0.025878 -0.051106 -0.000000 -0.000000  0.030957
  0O   1dxz       0.019459  0.000000 -0.000000  0.009103 -0.004977  0.000000
  0O   1dyz      -0.000000 -0.000000 -0.000000 -0.000000  0.000000 -0.000000
  0O   1dx2y2     0.000000 -0.044823  0.088517  0.000000  0.000000 -0.053619
  0O   1dxy      -0.039554 -0.000000 -0.000000 -0.004977 -0.009103  0.000000
  1O   1s         0.000000  0.100119 -0.008991  0.000000 -0.000000 -0.183145
  1O   2s         0.000000  0.536861  0.108618  0.000000 -0.000000 -1.261715
  1O   3s        -0.000000  0.101843  0.147776 -0.000000  0.000000  4.721552
  1O   1pz       -0.290154 -0.000000  0.000000  0.553723 -0.302736  0.000000
  1O   1px        0.000000 -0.624743  0.556120  0.000000  0.000000 -0.277975
  1O   1py        0.589773  0.000000  0.000000 -0.302736 -0.553723 -0.000000
  1O   2pz        0.278988  0.000000 -0.000000 -0.957253  0.523357 -0.000000
  1O   2px       -0.000000  0.969264 -0.850164 -0.000000 -0.000000  2.610298
  1O   2py       -0.567077 -0.000000 -0.000000  0.523357  0.957253  0.000000
  1O   1dz2       0.000000 -0.025878 -0.051106  0.000000 -0.000000 -0.030957
  1O   1dxz      -0.019459 -0.000000  0.000000  0.009103 -0.004977  0.000000
  1O   1dyz      -0.000000  0.000000 -0.000000  0.000000  0.000000 -0.000000
  1O   1dx2y2    -0.000000  0.044823  0.088517 -0.000000  0.000000  0.053619
  1O   1dxy       0.039554  0.000000  0.000000 -0.004977 -0.009103 -0.000000
                     18        19        20        21        22        23   
                   2.08283   2.08283   2.31087   2.31092   2.66935   2.66942
                   0.00000   0.00000   0.00000   0.00000   0.00000   0.00000
                  --------  --------  --------  --------  --------  --------
  0O   1s        -0.000000  0.000000 -0.000000 -0.000000  0.000000 -0.000000
  0O   2s        -0.000000  0.000000 -0.000000 -0.000000  0.000000 -0.000000
  0O   3s         0.000000 -0.000000  0.000000  0.000000 -0.000000  0.000000
  0O   1pz       -0.035367  0.109245 -0.000000  0.000000 -0.000000 -0.000000
  0O   1px        0.000000  0.000000  0.000000 -0.000000  0.000000 -0.000000
  0O   1py        0.109245  0.035367 -0.000000 -0.000000 -0.000000  0.000000
  0O   2pz       -0.005439  0.016801 -0.000000 -0.000000 -0.000000  0.000000
  0O   2px       -0.000000  0.000000 -0.000000 -0.000000  0.000000 -0.000000
  0O   2py        0.016801  0.005439  0.000000 -0.000000  0.000000  0.000000
  0O   1dz2       0.000000 -0.000000 -0.595202  0.000000 -0.631120 -0.000000
  0O   1dxz      -0.193932  0.599027  0.000000  0.000000  0.000000  0.000000
  0O   1dyz       0.000000  0.000000 -0.000000 -0.687280 -0.000000  0.728755
  0O   1dx2y2     0.000000  0.000000 -0.343640  0.000000 -0.364378 -0.000000
  0O   1dxy       0.599027  0.193932 -0.000000  0.000000  0.000000  0.000000
  1O   1s         0.000000  0.000000  0.000000  0.000000 -0.000000  0.000000
  1O   2s         0.000000 -0.000000  0.000000  0.000000 -0.000000  0.000000
  1O   3s        -0.000000  0.000000 -0.000000 -0.000000  0.000000 -0.000000
  1O   1pz       -0.035367  0.109245 -0.000000  0.000000  0.000000  0.000000
  1O   1px        0.000000 -0.000000  0.000000  0.000000 -0.000000  0.000000
  1O   1py        0.109245  0.035367 -0.000000 -0.000000  0.000000 -0.000000
  1O   2pz       -0.005439  0.016801  0.000000  0.000000 -0.000000 -0.000000
  1O   2px       -0.000000  0.000000 -0.000000 -0.000000  0.000000 -0.000000
  1O   2py        0.016801  0.005439 -0.000000  0.000000 -0.000000 -0.000000
  1O   1dz2       0.000000 -0.000000 -0.595202  0.000000  0.631120  0.000000
  1O   1dxz       0.193932 -0.599027 -0.000000 -0.000000  0.000000 -0.000000
  1O   1dyz       0.000000  0.000000 -0.000000 -0.687280  0.000000 -0.728755
  1O   1dx2y2    -0.000000  0.000000 -0.343640  0.000000  0.364378  0.000000
  1O   1dxy      -0.599027 -0.193932 -0.000000 -0.000000 -0.000000  0.000000
                     24        25        26        27   
                   2.92044   3.39272   3.39272   3.84169
                   0.00000   0.00000   0.00000   0.00000
                  --------  --------  --------  --------
  0O   1s         0.071478 -0.000000  0.000000 -0.061263
  0O   2s         0.455192 -0.000000  0.000000  0.025283
  0O   3s        -0.201015  0.000000  0.000000 -2.403088
  0O   1pz        0.000000 -0.012735 -0.000277 -0.000000
  0O   1px       -0.347070  0.000000 -0.000000  0.394135
  0O   1py        0.000000  0.000277 -0.012735  0.000000
  0O   2pz       -0.000000 -0.302995 -0.006587  0.000000
  0O   2px        0.339176 -0.000000 -0.000000  1.504970
  0O   2py        0.000000  0.006587 -0.302995 -0.000000
  0O   1dz2       0.335552 -0.000000 -0.000000  0.536205
  0O   1dxz       0.000000  0.864356  0.018790 -0.000000
  0O   1dyz      -0.000000  0.000000 -0.000000  0.000000
  0O   1dx2y2    -0.581192  0.000000  0.000000 -0.928735
  0O   1dxy      -0.000000 -0.018790  0.864356  0.000000
  1O   1s         0.071478  0.000000  0.000000  0.061263
  1O   2s         0.455192  0.000000  0.000000 -0.025283
  1O   3s        -0.201015 -0.000000 -0.000000  2.403088
  1O   1pz        0.000000  0.012735  0.000277 -0.000000
  1O   1px        0.347070  0.000000 -0.000000  0.394135
  1O   1py        0.000000 -0.000277  0.012735  0.000000
  1O   2pz        0.000000  0.302995  0.006587 -0.000000
  1O   2px       -0.339176 -0.000000 -0.000000  1.504970
  1O   2py        0.000000 -0.006587  0.302995  0.000000
  1O   1dz2       0.335552 -0.000000  0.000000 -0.536205
  1O   1dxz      -0.000000  0.864356  0.018790 -0.000000
  1O   1dyz       0.000000  0.000000 -0.000000 -0.000000
  1O   1dx2y2    -0.581192  0.000000 -0.000000  0.928735
  1O   1dxy      -0.000000 -0.018790  0.864356  0.000000

                      0         1         2         3         4         5   
                 -19.32530 -19.32523  -1.32009  -0.73291  -0.52978  -0.49486
                   1.00000   1.00000   1.00000   1.00000   1.00000   1.00000
                  --------  --------  --------  --------  --------  --------
  0O   1s        -0.699992 -0.699422  0.200111  0.213353 -0.082214  0.000000
  0O   2s         0.024216  0.026855  0.402720  0.446542 -0.142935  0.000000
  0O   3s        -0.007476 -0.017001  0.166278  0.385919 -0.275724  0.000000
  0O   1pz       -0.000000  0.000000  0.000000  0.000000  0.000000 -0.357699
  0O   1px       -0.000804 -0.003045 -0.210791  0.154737 -0.456221  0.000000
  0O   1py        0.000000  0.000000 -0.000000 -0.000000  0.000000  0.255903
  0O   2pz        0.000000 -0.000000  0.000000  0.000000  0.000000 -0.228121
  0O   2px        0.001181  0.004665 -0.051163  0.067482 -0.219290  0.000000
  0O   2py        0.000000  0.000000 -0.000000 -0.000000  0.000000  0.163201
  0O   1dz2       0.000366 -0.001040 -0.014436  0.001842 -0.010556  0.000000
  0O   1dxz       0.000000 -0.000000  0.000000 -0.000000 -0.000000  0.031537
  0O   1dyz       0.000000 -0.000000 -0.000000  0.000000  0.000000 -0.000000
  0O   1dx2y2    -0.000635  0.001801  0.025004 -0.003190  0.018284 -0.000000
  0O   1dxy       0.000000 -0.000000 -0.000000  0.000000  0.000000 -0.022562
  1O   1s        -0.700007  0.699407  0.200111 -0.213353 -0.082214  0.000000
  1O   2s         0.024217 -0.026855  0.402720 -0.446542 -0.142935 -0.000000
  1O   3s        -0.007477  0.017001  0.166278 -0.385919 -0.275724  0.000000
  1O   1pz        0.000000  0.000000 -0.000000 -0.000000  0.000000 -0.357699
  1O   1px        0.000804 -0.003045  0.210791  0.154737  0.456221 -0.000000
  1O   1py        0.000000  0.000000 -0.000000 -0.000000  0.000000  0.255903
  1O   2pz        0.000000  0.000000 -0.000000 -0.000000  0.000000 -0.228121
  1O   2px       -0.001181  0.004665  0.051163  0.067482  0.219290 -0.000000
  1O   2py        0.000000  0.000000 -0.000000 -0.000000  0.000000  0.163201
  1O   1dz2       0.000366  0.001040 -0.014436 -0.001842 -0.010556  0.000000
  1O   1dxz      -0.000000 -0.000000  0.000000  0.000000 -0.000000 -0.031537
  1O   1dyz       0.000000  0.000000 -0.000000 -0.000000  0.000000 -0.000000
  1O   1dx2y2    -0.000635 -0.001802  0.025004  0.003190  0.018284  0.000000
  1O   1dxy       0.000000  0.000000 -0.000000 -0.000000  0.000000  0.022562
                      6         7         8         9        10        11   
                  -0.49486  -0.07774  -0.07774   0.36061   0.76269   0.88387
                   1.00000   0.00000   0.00000   0.00000   0.00000   0.00000
                  --------  --------  --------  --------  --------  --------
  0O   1s         0.000000 -0.000000 -0.000000  0.143338  0.214925  0.094657
  0O   2s         0.000000  0.000000  0.000000  0.341521  1.161345  0.499229
  0O   3s         0.000000 -0.000000  0.000000  1.493563 -0.959408  0.230232
  0O   1pz        0.255903  0.419149  0.277530 -0.000000 -0.000000 -0.000000
  0O   1px        0.000000 -0.000000  0.000000 -0.478045  0.056143  0.638636
  0O   1py        0.357699  0.277530 -0.419149  0.000000 -0.000000  0.000000
  0O   2pz        0.163201  0.389731  0.258052  0.000000 -0.000000  0.000000
  0O   2px        0.000000  0.000000 -0.000000 -1.295278  0.077412 -1.032206
  0O   2py        0.228121  0.258052 -0.389731  0.000000  0.000000 -0.000000
  0O   1dz2       0.000000 -0.000000 -0.000000  0.011360 -0.034162 -0.028897
  0O   1dxz      -0.022562  0.005230  0.003463  0.000000 -0.000000  0.000000
  0O   1dyz      -0.000000 -0.000000  0.000000  0.000000 -0.000000  0.000000
  0O   1dx2y2    -0.000000 -0.000000  0.000000 -0.019676  0.059171  0.050051
  0O   1dxy      -0.031537  0.003463 -0.005230  0.000000 -0.000000 -0.000000
  1O   1s         0.000000  0.000000  0.000000 -0.143338  0.214925 -0.094657
  1O   2s         0.000000  0.000000  0.000000 -0.341521  1.161345 -0.499229
  1O   3s         0.000000  0.000000 -0.000000 -1.493563 -0.959408 -0.230232
  1O   1pz        0.255903 -0.419149 -0.277530  0.000000 -0.000000 -0.000000
  1O   1px       -0.000000 -0.000000 -0.000000 -0.478045 -0.056143  0.638636
  1O   1py        0.357699 -0.277530  0.419149  0.000000 -0.000000  0.000000
  1O   2pz        0.163201 -0.389731 -0.258052 -0.000000  0.000000  0.000000
  1O   2px       -0.000000  0.000000 -0.000000 -1.295278 -0.077412 -1.032206
  1O   2py        0.228121 -0.258052  0.389731  0.000000  0.000000 -0.000000
  1O   1dz2      -0.000000  0.000000  0.000000 -0.011360 -0.034162  0.028897
  1O   1dxz       0.022562  0.005230  0.003463  0.000000  0.000000 -0.000000
  1O   1dyz      -0.000000  0.000000 -0.000000 -0.000000 -0.000000 -0.000000
  1O   1dx2y2     0.000000  0.000000 -0.000000  0.019676  0.059171 -0.050051
  1O   1dxy       0.031537  0.003463 -0.005230  0.000000 -0.000000  0.000000
                     12        13        14        15        16        17   
                   0.88940   0.88940   0.90587   1.01458   1.01458   1.23215
                   0.00000   0.00000   0.00000   0.00000   0.00000   0.00000
                  --------  --------  --------  --------  --------  --------
  0O   1s        -0.000000 -0.000000 -0.025754  0.000000  0.000000  0.189630
  0O   2s        -0.000000 -0.000000  0.023539  0.000000  0.000000  1.285932
  0O   3s        -0.000000 -0.000000  0.213990 -0.000000 -0.000000 -4.683128
  0O   1pz       -0.674454 -0.056187  0.000000 -0.482466  0.452608  0.000000
  0O   1px       -0.000000 -0.000000 -0.567317  0.000000 -0.000000 -0.269572
  0O   1py       -0.056187  0.674454  0.000000 -0.452608 -0.482466  0.000000
  0O   2pz        0.617907  0.051476 -0.000000  0.777716 -0.729586 -0.000000
  0O   2px        0.000000  0.000000  0.846476 -0.000000  0.000000  2.554353
  0O   2py        0.051476 -0.617907 -0.000000  0.729586  0.777716 -0.000000
  0O   1dz2       0.000000  0.000000 -0.047136  0.000000  0.000000  0.030015
  0O   1dxz       0.051779  0.004314 -0.000000  0.005485 -0.005146 -0.000000
  0O   1dyz       0.000000 -0.000000 -0.000000  0.000000  0.000000 -0.000000
  0O   1dx2y2    -0.000000 -0.000000  0.081642  0.000000 -0.000000 -0.051987
  0O   1dxy       0.004314 -0.051779 -0.000000  0.005146  0.005485  0.000000
  1O   1s         0.000000  0.000000 -0.025754  0.000000 -0.000000 -0.189630
  1O   2s         0.000000  0.000000  0.023539  0.000000 -0.000000 -1.285932
  1O   3s         0.000000 -0.000000  0.213990 -0.000000  0.000000  4.683128
  1O   1pz       -0.674454 -0.056187  0.000000  0.482466 -0.452608  0.000000
  1O   1px       -0.000000 -0.000000  0.567317 -0.000000 -0.000000 -0.269572
  1O   1py       -0.056187  0.674454  0.000000  0.452608  0.482466 -0.000000
  1O   2pz        0.617907  0.051476 -0.000000 -0.777716  0.729586 -0.000000
  1O   2px        0.000000  0.000000 -0.846476  0.000000  0.000000  2.554353
  1O   2py        0.051476 -0.617907 -0.000000 -0.729586 -0.777716  0.000000
  1O   1dz2      -0.000000 -0.000000 -0.047136  0.000000 -0.000000 -0.030015
  1O   1dxz      -0.051779 -0.004314  0.000000  0.005485 -0.005146  0.000000
  1O   1dyz      -0.000000 -0.000000  0.000000 -0.000000 -0.000000 -0.000000
  1O   1dx2y2     0.000000  0.000000  0.081642 -0.000000  0.000000  0.051987
  1O   1dxy      -0.004314  0.051779  0.000000  0.005146  0.005485 -0.000000
                     18        19        20        21        22        23   
                   2.12868   2.12868   2.39491   2.39494   2.76770   2.76773
                   0.00000   0.00000   0.00000   0.00000   0.00000   0.00000
                  --------  --------  --------  --------  --------  --------
  0O   1s        -0.000000 -0.000000 -0.000000 -0.000000 -0.000000 -0.000000
  0O   2s        -0.000000 -0.000000 -0.000000 -0.000000 -0.000000 -0.000000
  0O   3s         0.000000  0.000000  0.000000  0.000000  0.000000  0.000000
  0O   1pz       -0.039095 -0.121961 -0.000000  0.000000  0.000000  0.000000
  0O   1px        0.000000 -0.000000 -0.000000  0.000000 -0.000000 -0.000000
  0O   1py        0.121961 -0.039095 -0.000000 -0.000000  0.000000  0.000000
  0O   2pz       -0.004662 -0.014545 -0.000000 -0.000000 -0.000000 -0.000000
  0O   2px       -0.000000 -0.000000  0.000000 -0.000000 -0.000000 -0.000000
  0O   2py        0.014545 -0.004662 -0.000000  0.000000  0.000000 -0.000000
  0O   1dz2      -0.000000 -0.000000 -0.595202  0.000000  0.631120  0.000000
  0O   1dxz      -0.191897 -0.598642  0.000000  0.000000  0.000000  0.000000
  0O   1dyz       0.000000 -0.000000 -0.000000 -0.687280 -0.000000  0.728755
  0O   1dx2y2    -0.000000 -0.000000 -0.343640  0.000000  0.364378  0.000000
  0O   1dxy       0.598642 -0.191897 -0.000000  0.000000 -0.000000  0.000000
  1O   1s         0.000000 -0.000000 -0.000000  0.000000  0.000000  0.000000
  1O   2s         0.000000  0.000000 -0.000000  0.000000  0.000000  0.000000
  1O   3s        -0.000000 -0.000000  0.000000 -0.000000 -0.000000 -0.000000
  1O   1pz       -0.039095 -0.121961 -0.000000 -0.000000 -0.000000 -0.000000
  1O   1px        0.000000  0.000000  0.000000  0.000000  0.000000  0.000000
  1O   1py        0.121961 -0.039095  0.000000 -0.000000  0.000000 -0.000000
  1O   2pz       -0.004662 -0.014545  0.000000  0.000000  0.000000  0.000000
  1O   2px       -0.000000 -0.000000 -0.000000 -0.000000 -0.000000 -0.000000
  1O   2py        0.014545 -0.004662 -0.000000  0.000000 -0.000000  0.000000
  1O   1dz2      -0.000000 -0.000000 -0.595202  0.000000 -0.631120 -0.000000
  1O   1dxz       0.191897  0.598642 -0.000000 -0.000000  0.000000  0.000000
  1O   1dyz       0.000000 -0.000000 -0.000000 -0.687280  0.000000 -0.728755
  1O   1dx2y2    -0.000000 -0.000000 -0.343640  0.000000 -0.364378 -0.000000
  1O   1dxy      -0.598642  0.191897  0.000000 -0.000000 -0.000000  0.000000
                     24        25        26        27   
                   2.96673   3.44825   3.44825   3.87700
                   0.00000   0.00000   0.00000   0.00000
                  --------  --------  --------  --------
  0O   1s         0.075632 -0.000000 -0.000000  0.058415
  0O   2s         0.468631 -0.000000 -0.000000 -0.033788
  0O   3s        -0.204770 -0.000000  0.000000  2.397090
  0O   1pz        0.000000 -0.004541 -0.013807 -0.000000
  0O   1px       -0.343359  0.000000 -0.000000 -0.395660
  0O   1py       -0.000000  0.013807 -0.004541  0.000000
  0O   2pz       -0.000000 -0.093688 -0.284880 -0.000000
  0O   2px        0.335759  0.000000 -0.000000 -1.498773
  0O   2py       -0.000000  0.284880 -0.093688  0.000000
  0O   1dz2       0.335521  0.000000 -0.000000 -0.536220
  0O   1dxz       0.000000  0.270103  0.821313 -0.000000
  0O   1dyz      -0.000000  0.000000 -0.000000 -0.000000
  0O   1dx2y2    -0.581140 -0.000000  0.000000  0.928760
  0O   1dxy      -0.000000 -0.821313  0.270103 -0.000000
  1O   1s         0.075632 -0.000000  0.000000 -0.058415
  1O   2s         0.468631 -0.000000  0.000000  0.033788
  1O   3s        -0.204770  0.000000 -0.000000 -2.397090
  1O   1pz        0.000000  0.004541  0.013807 -0.000000
  1O   1px        0.343359  0.000000 -0.000000 -0.395660
  1O   1py       -0.000000 -0.013807  0.004541  0.000000
  1O   2pz        0.000000  0.093688  0.284880  0.000000
  1O   2px       -0.335759  0.000000 -0.000000 -1.498773
  1O   2py       -0.000000 -0.284880  0.093688 -0.000000
  1O   1dz2       0.335521 -0.000000  0.000000  0.536220
  1O   1dxz      -0.000000  0.270103  0.821313 -0.000000
  1O   1dyz       0.000000 -0.000000  0.000000  0.000000
  1O   1dx2y2    -0.581140  0.000000 -0.000000 -0.928760
  1O   1dxy      -0.000000 -0.821313  0.270103 -0.000000



                    ********************************
                    * MULLIKEN POPULATION ANALYSIS *
                    ********************************

--------------------------------------------
MULLIKEN ATOMIC CHARGES AND SPIN POPULATIONS
--------------------------------------------
   0 O :    0.000000    1.000000
   1 O :   -0.000000    1.000000
Sum of atomic charges         :    0.0000000
Sum of atomic spin populations:    2.0000000

-----------------------------------------------------
MULLIKEN REDUCED ORBITAL CHARGES AND SPIN POPULATIONS
-----------------------------------------------------
CHARGE
  0 O s       :     3.887442  s :     3.887442
      pz      :     1.488763  p :     4.074739
      px      :     1.097213
      py      :     1.488763
      dz2     :     0.003836  d :     0.037819
      dxz     :     0.011237
      dyz     :     0.000000
      dx2y2   :     0.011509
      dxy     :     0.011237

  1 O s       :     3.887442  s :     3.887442
      pz      :     1.488763  p :     4.074739
      px      :     1.097213
      py      :     1.488763
      dz2     :     0.003836  d :     0.037819
      dxz     :     0.011237
      dyz     :     0.000000
      dx2y2   :     0.011509
      dxy     :     0.011237


SPIN
  0 O s       :     0.020943  s :     0.020943
      pz      :     0.500529  p :     0.980042
      px      :    -0.021017
      py      :     0.500529
      dz2     :     0.000019  d :    -0.000985
      dxz     :    -0.000529
      dyz     :     0.000000
      dx2y2   :     0.000056
      dxy     :    -0.000529

  1 O s       :     0.020943  s :     0.020943
      pz      :     0.500529  p :     0.980042
      px      :    -0.021017
      py      :     0.500529
      dz2     :     0.000019  d :    -0.000985
      dxz     :    -0.000529
      dyz     :     0.000000
      dx2y2   :     0.000056
      dxy     :    -0.000529



                     *******************************
                     * LOEWDIN POPULATION ANALYSIS *
                     *******************************

-------------------------------------------
LOEWDIN ATOMIC CHARGES AND SPIN POPULATIONS
-------------------------------------------
   0 O :   -0.000000    1.000000
   1 O :    0.000000    1.000000

----------------------------------------------------
LOEWDIN REDUCED ORBITAL CHARGES AND SPIN POPULATIONS
----------------------------------------------------
CHARGE
  0 O s       :     3.669109  s :     3.669109
      pz      :     1.480953  p :     4.258594
      px      :     1.296689
      py      :     1.480953
      dz2     :     0.008551  d :     0.072297
      dxz     :     0.019047
      dyz     :     0.000000
      dx2y2   :     0.025652
      dxy     :     0.019047

  1 O s       :     3.669109  s :     3.669109
      pz      :     1.480953  p :     4.258594
      px      :     1.296689
      py      :     1.480953
      dz2     :     0.008551  d :     0.072297
      dxz     :     0.019047
      dyz     :     0.000000
      dx2y2   :     0.025652
      dxy     :     0.019047


SPIN
  0 O s       :     0.012697  s :     0.012697
      pz      :     0.495118  p :     0.976286
      px      :    -0.013950
      py      :     0.495118
      dz2     :     0.000313  d :     0.011017
      dxz     :     0.004882
      dyz     :     0.000000
      dx2y2   :     0.000940
      dxy     :     0.004882

  1 O s       :     0.012697  s :     0.012697
      pz      :     0.495118  p :     0.976286
      px      :    -0.013950
      py      :     0.495118
      dz2     :     0.000313  d :     0.011017
      dxz     :     0.004882
      dyz     :     0.000000
      dx2y2   :     0.000940
      dxy     :     0.004882



                      *****************************
                      * MAYER POPULATION ANALYSIS *
                      *****************************

  NA   - Mulliken gross atomic population
  ZA   - Total nuclear charge
  QA   - Mulliken gross atomic charge
  VA   - Mayer's total valence
  BVA  - Mayer's bonded valence
  FA   - Mayer's free valence

  ATOM       NA         ZA         QA         VA         BVA        FA
  0 O      8.0000     8.0000     0.0000     2.3427     1.8117     0.5311
  1 O      8.0000     8.0000    -0.0000     2.3427     1.8117     0.5311

  Mayer bond orders larger than 0.100000
B(  0-O ,  1-O ) :   1.8117 

-------
TIMINGS
-------

Total SCF time: 0 days 0 hours 0 min 0 sec 

Total time                  ....       0.401 sec
Sum of individual times     ....       0.361 sec  ( 90.1%)

SCF preparation             ....       0.050 sec  ( 12.6%)
Fock matrix formation       ....       0.276 sec  ( 69.0%)
  Startup                   ....       0.001 sec  (  0.3% of F)
  Split-RI-J                ....       0.013 sec  (  4.6% of F)
  Chain of spheres X        ....       0.204 sec  ( 73.8% of F)
  XC integration            ....       0.067 sec  ( 24.3% of F)
    XC Preparation          ....       0.000 sec  (  0.0% of XC)
    Basis function eval.    ....       0.015 sec  ( 22.0% of XC)
    Density eval.           ....       0.009 sec  ( 13.4% of XC)
    XC-Functional eval.     ....       0.012 sec  ( 17.5% of XC)
    XC-Potential eval.      ....       0.007 sec  ( 10.7% of XC)
Diagonalization             ....       0.000 sec  (  0.0%)
Density matrix formation    ....       0.005 sec  (  1.3%)
Total Energy calculation    ....       0.003 sec  (  0.7%)
Population analysis         ....       0.003 sec  (  0.7%)
Orbital Transformation      ....       0.003 sec  (  0.8%)
Orbital Orthonormalization  ....       0.000 sec  (  0.0%)
DIIS solution               ....       0.010 sec  (  2.4%)
SOSCF solution              ....       0.011 sec  (  2.6%)
Finished LeanSCF after   0.4 sec

Maximum memory used throughout the entire LEANSCF-calculation: 4.7 MB


           ************************************************************
           *        Program running with 4 parallel MPI-processes     *
           *              working on a common directory               *
           ************************************************************

------------------------------------------------------------------------------
                         ORCA PROPERTY INTEGRAL CALCULATIONS
------------------------------------------------------------------------------

GBWName                                   ... o2-opt_orb.gbw
Number of atoms                           ...      2
Number of basis functions                 ...     28
Max core memory                           ...   2000 MB

Dipole integrals                          ... YES
Quadrupole integrals                      ...  NO
Linear momentum integrals                 ...  NO
Angular momentum integrals                ...  NO
Higher moments length integrals           ...  NO
Higher moments velocity integrals         ...  NO
Kinetic energy integrals                  ...  NO
GIAO right hand sides                     ...  NO
GIAO dipole derivative integrals          ...  NO
SOC integrals                             ...  NO
EPR diamagnetic integrals (GIAO)          ...  NO
EPR gauge integrals                       ...  NO
Field gradient integrals                  ...  NO (   0 nuclei)
Spin-dipole/Fermi contact integrals       ...  NO (   0 nuclei)
Contact density integrals                 ...  NO (   0 nuclei)
Nucleus-orbit integrals                   ...  NO (   0 nuclei)
Geometric perturbations                   ...  NO (   2 nuclei)

Choice of electric origin   ... Center of mass
Position of electric origin ... ( -0.0000,  0.0000,  0.0000) 
Choice of magnetic origin   ... GIAO
Position of magnetic origin ... (  0.0000,  0.0000,  0.0000) 

Calculating integrals                     ... Electric Dipole (Length)     done (  0.0 sec)

Property integrals calculated in   0.0 sec

Maximum memory used throughout the entire PROPINT-calculation: 5.6 MB

-------------------------   --------------------
FINAL SINGLE POINT ENERGY      -150.049852306840
-------------------------   --------------------



           ************************************************************
           *        Program running with 4 parallel MPI-processes     *
           *              working on a common directory               *
           ************************************************************
------------------------------------------------------------------------------
                         ORCA SCF GRADIENT CALCULATION
------------------------------------------------------------------------------

Nuc. rep. gradient        (SHARK) ... done (  0.0 sec)
HCore & Overlap gradient  (SHARK) ... done (  0.0 sec)
Split-RIJ-J gradient      (SHARK) ... done (  0.0 sec)
COSX-gradient                     ... done (  0.1 sec)
XC gradient                       ... done (  0.0 sec)

------------------
CARTESIAN GRADIENT
------------------

   1   O   :   -0.077266747    0.000000015   -0.000000027
   2   O   :    0.077266747   -0.000000015    0.000000027

Difference to translation invariance:
           :    0.0000000000    0.0000000000   -0.0000000000

Difference to rotation invariance:
           :    0.0000000000    0.0000000588    0.0000000319

Norm of the Cartesian gradient     ...    0.1092716812
RMS gradient                       ...    0.0446099770
MAX gradient                       ...    0.0772667467

-------
TIMINGS
-------

Total SCF gradient time     ....        0.166 sec

Densities                   ....       0.000 sec  (  0.0%)
One electron gradient       ....       0.003 sec  (  1.6%)
RI-J Coulomb gradient       ....       0.042 sec  ( 25.6%)
COSX gradient               ....       0.107 sec  ( 64.3%)
XC gradient                 ....       0.014 sec  (  8.4%)

Maximum memory used throughout the entire SCFGRAD-calculation: 6.4 MB
------------------------------------------------------------------------------
                         ORCA GEOMETRY RELAXATION STEP
------------------------------------------------------------------------------

Reading the OPT-File                    .... done
Getting information on internals        .... done
Copying old internal coords+grads       .... done
Making the new internal coordinates     .... (2022 redundants) done
Validating the new internal coordinates .... (2022 redundants) done
Calculating the B-matrix                .... done
Calculating the G,G- and P matrices     .... done
Transforming gradient to internals      .... done
Projecting the internal gradient        .... done
Number of atoms                         ....   2
Number of internal coordinates          ....   1
Current Energy                          ....  -150.049852307 Eh
Current gradient norm                   ....     0.109271681 Eh/bohr
Maximum allowed component of the step   ....  0.300
Current trust radius                    ....  0.300
Evaluating the initial hessian          ....  (Almloef) done
Projecting the Hessian                  .... done
Forming the augmented Hessian           .... done
Diagonalizing the augmented Hessian     .... done
Last element of RFO vector              ....  0.997971275
Lowest eigenvalues of augmented Hessian:
 -0.004929250
Length of the computed step             ....  0.063795230
The final length of the internal step   ....  0.063795230
Converting the step to Cartesian space:
 Initial RMS(Int)=    0.0637952296
Transforming coordinates:
 Iter   0:  RMS(Cart)=    0.0184160965 RMS(Int)=    0.0637952296
done
Storing new coordinates                 .... done

                                .--------------------.
          ----------------------|Geometry convergence|-------------------------
          Item                value                   Tolerance       Converged
          ---------------------------------------------------------------------
          RMS gradient        0.0772667467            0.0001000000      NO
          MAX gradient        0.0772667467            0.0003000000      NO
          RMS step            0.0637952296            0.0020000000      NO
          MAX step            0.0637952296            0.0040000000      NO
          -------------------------------------------------------------------------
          ........................................................
          Max(Bonds)      0.0338      Max(Angles)    0.00
          Max(Dihed)        0.00      Max(Improp)    0.00
          ---------------------------------------------------------------------

The optimization has not yet converged - more geometry cycles are needed


    ---------------------------------------------------------------------------
                         Redundant Internal Coordinates
                            (Angstroem and degrees)

        Definition                    Value    dE/dq     Step     New-Value
    ----------------------------------------------------------------------------
     1. B(O   1,O   0)                1.1509 -0.077267  0.0338    1.1847   
    ----------------------------------------------------------------------------

Geometry step timings:
Preparation and reading OPT file:      0.000 s ( 5.882 %)
Internal coordinates            :      0.000 s ( 2.941 %)
B/P matrices and projection     :      0.000 s (24.183 %)
Hessian update/contruction      :      0.000 s (21.895 %)
Making the step                 :      0.000 s (13.725 %)
Converting the step to Cartesian:      0.000 s ( 6.536 %)
Storing new data                :      0.000 s ( 5.556 %)
Checking convergence            :      0.000 s ( 4.902 %)
Final printing                  :      0.000 s (14.379 %)
Total time                      :      0.000 s

Time for energy+gradient        :      2.068 s
Time for complete geometry iter :      2.367 s

         *************************************************************
         *                GEOMETRY OPTIMIZATION CYCLE   2            *
         *************************************************************
---------------------------------
CARTESIAN COORDINATES (ANGSTROEM)
---------------------------------
  O      0.592344    0.000000    0.000000
  O     -0.592344    0.000000    0.000000

----------------------------
CARTESIAN COORDINATES (A.U.)
----------------------------
  NO LB      ZA    FRAG     MASS         X           Y           Z
   0 O     8.0000    0    15.999    1.119369    0.000000    0.000000
   1 O     8.0000    0    15.999   -1.119369    0.000000    0.000000

[...]



           ************************************************************
           *        Program running with 4 parallel MPI-processes     *
           *              working on a common directory               *
           ************************************************************
------------------------------------------------------------------------------
                            ORCA SCF RESPONSE CALCULATION
------------------------------------------------------------------------------

GBWName                                 ... o2-opt_orb.gbw
Number of atoms                         ...      2
Number of basis functions               ...     28
Max core memory                         ...   2000 MB

Electric field perturbation             ...  NO
Quadrupolar field perturbation          ...  NO
Magnetic field perturbation (no GIAO)   ...  NO
Magnetic field perturbation (with GIAO) ...  NO
Linear momentum (velocity) perturbation ...  NO
Spin-orbit coupling perturbation        ...  NO
Choice of electric origin               ... Center of mass
Position of electric origin             ...    -0.000000     0.000000     0.000000
Choice of magnetic origin               ... GIAO
Position of magnetic origin             ...     0.000000     0.000000     0.000000
Nuclear geometric perturbations         ... YES (   6 perturbations)
Nucleus-orbit perturbations             ...  NO (   0 perturbations)
Spin-dipole/Fermi contact perturbations ...  NO (   0 perturbations)

Total number of real perturbations      ...      6
Total number of imaginary perturbations ...      0
Total number of triplet perturbations   ...      0
Total number of SOC perturbations       ...      0

Using XC Grid                  ... (o2-opt_orb.grid_cpscf.tmp) 
Recalculating density on grid  ... (o2-opt_orb.grho_cpscf0.tmp) done
Calculating the xc-kernel      ... (o2-opt_orb.fxc_cpscf0.tmp) done

                                **********************
                                * REAL PERTURBATIONS *
                                **********************



-------------------
SHARK CP-SCF DRIVER
-------------------

Dimension of the orbital basis          ...     28
Dimension of the CPSCF-problem          ...    318
Number of operators                     ...      2
Max. number of iterations               ...    128
Convergence Tolerance                   ... 1.0e-04
Number of perturbations                 ...      6
Perturbation type                       ... REAL

----------------------------
POPLE LINEAR EQUATION SOLVER
----------------------------

  ITERATION   0:   ||err||_max =   1.0564e-01 (   0.0 sec   0/  6 done)
  ITERATION   1:   ||err||_max =   1.0144e-02 (   0.0 sec   0/  6 done)
  ITERATION   2:   ||err||_max =   1.2647e-03 (   0.0 sec   0/  6 done)
  ITERATION   3:   ||err||_max =   1.7609e-04 (   0.0 sec   0/  6 done)
  ITERATION   4:   ||err||_max =   8.9796e-05 (   0.0 sec   6/  6 done)

CP-SCF equations solved in   0.1 sec
Response densities calculated in   0.0 sec

Maximum memory used throughout the entire SCFRESP-calculation: 5.5 MB


           ************************************************************
           *        Program running with 4 parallel MPI-processes     *
           *              working on a common directory               *
           ************************************************************

------------------------------------------------------------------------------
                              ORCA PROPERTY CALCULATIONS
------------------------------------------------------------------------------

GBWName                                 ... o2-opt_orb.gbw
Number of atoms                         ...      2
Number of basis functions               ...     28
Max core memory                         ...   2000 MB

Electric properties:
Dipole moment                           ... YES
Quadrupole moment                       ...  NO
Static polarizability (Dipole/Dipole)   ...  NO
Static polarizability (Dipole/Quad.)    ...  NO
Static polarizability (Quad./Quad.)     ...  NO
Static polarizability (Velocity)        ...  NO
Static hyperpolarizability              ...  NO

Atomic electric properties:
Dipole moment                           ...  NO
Quadrupole moment                       ...  NO
Static polarizability                   ...  NO

Choice of electric origin               ... Center of mass
Position of electric origin             ...    -0.000000     0.000000     0.000000

General magnetic properties:
Magnetizability                         ...  NO

EPR properties:
g-Tensor (aka g-matrix)                 ...  NO
Zero-Field splitting spin-orbit         ...  NO
Zero-field splitting spin-spin          ...  NO
Hyperfine couplings                     ...  NO (   0 nuclei)
Quadrupole couplings                    ...  NO (   0 nuclei)
Contact density                         ...  NO (   0 nuclei)

NMR properties:
Chemical shifts                         ...  NO (   0 nuclei)
Spin-rotation constants                 ...  NO (   0 nuclei)
Spin-spin couplings                     ...  NO (   0 nuclei,    0 pairs)

Choice of magnetic origin               ... GIAO
Position of magnetic origin             ...     0.000000     0.000000     0.000000

Properties with geometric perturbations:
SCF Hessian                             ... YES
IR spectrum                             ... YES
VCD spectrum                            ...  NO
X-ray spectroscopy properties:
SCF XES/XAS/RIXS spectra                ...  NO

SCF SOC stabilization energy            ...  NO
Diagonal Born-Oppenheimer correction    ...  NO

-------------
DIPOLE MOMENT
-------------

Method             : SCF
Type of density    : Electron Density
Multiplicity       :   3
Irrep              :   0
Energy             :  -150.0524526806207177 Eh
Basis              : AO
                                X                 Y                 Z
Electronic contribution:     -0.000000007      -0.000000001      -0.000000002
Nuclear contribution   :      0.000000000       0.000000000       0.000000000
                        -----------------------------------------
Total Dipole Moment    :     -0.000000007      -0.000000001      -0.000000002
                        -----------------------------------------
Magnitude (a.u.)       :      0.000000008
Magnitude (Debye)      :      0.000000019



--------------------
Rotational spectrum 
--------------------
 
Rotational constants in cm-1:             0.000000             1.492567             1.492567 
Rotational constants in MHz :             0.000000         44746.040327         44746.040327 

Dipole components along the rotational axes: 
x,y,z [a.u.] :    -0.000000    -0.000000    -0.000000 
x,y,z [Debye]:    -0.000000    -0.000000    -0.000000 

 

Dipole moment calculation done in   0.0 sec 

-----------
SCF HESSIAN
-----------

Occupied/Occupied contributions to the Hessian:
   => Occupied/Occupied contributions              ... done (  0.0 sec)
Perturbed density contributions to the Hessian:
   => Perturbed density contributions              ... done (  0.0 sec)
Explicit contributions to the Hessian:
   => Nuclear repulsion Hessian                    ... done (  0.0 sec)
   => HCore and overlap Hessian                    ... done (  0.0 sec)
   => RI-J Hessian                                 ... done (  0.1 sec)
   => COSX Hessian                                 ... done (  0.8 sec)
   => XC-Hessian                                   ... done (  0.1 sec)
   => Explicit contributions done
Dipole derivatives                                 ... done (  0.0 sec)
Mass weighting the Hessian           ... done
Calculating normal modes             ... done
Scaling frequencies                  ... done

-----------------------
VIBRATIONAL FREQUENCIES
-----------------------

Scaling factor for frequencies =  1.000000000  (already applied!)

     0:       0.00 cm**-1
     1:       0.00 cm**-1
     2:       0.00 cm**-1
     3:       0.00 cm**-1
     4:       0.00 cm**-1
     5:    1773.92 cm**-1


------------
NORMAL MODES
------------

These modes are the Cartesian displacements weighted by the diagonal matrix
M(i,i)=1/sqrt(m[i]) where m[i] is the mass of the displaced atom
Thus, these vectors are normalized but *not* orthogonal

                  0          1          2          3          4          5    
      0       0.000000   0.000000   0.000000   0.000000   0.000000   0.707107
      1       0.000000   0.000000   0.000000   0.000000   0.000000   0.000000
      2       0.000000   0.000000   0.000000   0.000000   0.000000   0.000000
      3       0.000000   0.000000   0.000000   0.000000   0.000000  -0.707107
      4       0.000000   0.000000   0.000000   0.000000   0.000000   0.000000
      5       0.000000   0.000000   0.000000   0.000000   0.000000   0.000000


-----------
IR SPECTRUM
-----------

 Mode   freq       eps      Int      T**2         TX        TY        TZ
       cm**-1   L/(mol*cm) km/mol    a.u.
----------------------------------------------------------------------------
  5:   1773.92   0.000000    0.00  0.000000  (-0.000000 -0.000000 -0.000000)

* The epsilon (eps) is given for a Dirac delta lineshape.
** The dipole moment derivative (T) already includes vibrational overlap.

The first frequency considered to be a vibration is 5
The total number of vibrations considered is 1


--------------------------
THERMOCHEMISTRY AT 298.15K
--------------------------

Temperature         ...   298.15 K
Pressure            ...     1.00 atm
Total Mass          ...    32.00 AMU
Quasi RRHO          ...     True
Cut-Off Frequency   ...     1.00 cm^-1
The molecule is recognized as being linear

Throughout the following assumptions are being made:
  (1) The electronic state is orbitally nondegenerate
      but the spin degeneracy is treated
  (2) There are no thermally accessible electronically excited states
  (3) Hindered rotations indicated by low frequency modes are not
      treated as such but are treated as vibrations and this may
      cause some error
  (4) All equations used are the standard statistical mechanics
      equations for an ideal gas
  (5) All vibrations are strictly harmonic

freq.    1773.92  E(vib)   ...       0.00 

------------
INNER ENERGY
------------

The inner energy is: U= E(el) + E(ZPE) + E(vib) + E(rot) + E(trans)
    E(el)   - is the total energy from the electronic structure calculation
              = E(kin-el) + E(nuc-el) + E(el-el) + E(nuc-nuc)
    E(ZPE)  - the the zero temperature vibrational energy from the frequency calculation
    E(vib)  - the the finite temperature correction to E(ZPE) due to population
              of excited vibrational states
    E(rot)  - is the rotational thermal energy
    E(trans)- is the translational thermal energy

Summary of contributions to the inner energy U:
Electronic energy                ...   -150.05245268 Eh
Zero point energy                ...      0.00404128 Eh       2.54 kcal/mol
Thermal vibrational correction   ...      0.00000155 Eh       0.00 kcal/mol
Thermal rotational correction    ...      0.00094418 Eh       0.59 kcal/mol
Thermal translational correction ...      0.00141627 Eh       0.89 kcal/mol
-----------------------------------------------------------------------
Total thermal energy                   -150.04604940 Eh


Summary of corrections to the electronic energy:
(perhaps to be used in another calculation)
Total thermal correction                  0.00236200 Eh       1.48 kcal/mol
Non-thermal (ZPE) correction              0.00404128 Eh       2.54 kcal/mol
-----------------------------------------------------------------------
Total correction                          0.00640328 Eh       4.02 kcal/mol


--------
ENTHALPY
--------

The enthalpy is H = U + kB*T
                kB is Boltzmann's constant
Total thermal energy              ...   -150.04604940 Eh 
Thermal Enthalpy correction       ...      0.00094421 Eh       0.59 kcal/mol
-----------------------------------------------------------------------
Total Enthalpy                    ...   -150.04510519 Eh


Note: Rotational entropy computed according to Herzberg 
Infrared and Raman Spectra, Chapter V,1, Van Nostrand Reinhold, 1945 
Point Group:  D(inf)h, Symmetry Number:   2  
Rotational constants in cm-1:     0.000000     1.492569     1.492569 

Vibrational entropy computed according to the QRRHO of S. Grimme
Chem.Eur.J. 2012 18 9955 using a reference frequency of 100.0 cm-1


-------
ENTROPY
-------

The entropy contributions are T*S = T*(S(el)+S(vib)+S(rot)+S(trans))
     S(el)   - electronic entropy
     S(vib)  - vibrational entropy
     S(rot)  - rotational entropy
     S(trans)- translational entropy
The entropies will be listed as multiplied by the temperature to get
units of energy

Electronic entropy                ...      0.00103729 Eh      0.65 kcal/mol
Vibrational entropy               ...      0.00000173 Eh      0.00 kcal/mol
Rotational entropy                ...      0.00494766 Eh      3.10 kcal/mol
Translational entropy             ...      0.01725741 Eh     10.83 kcal/mol
-----------------------------------------------------------------------
Final entropy term                ...      0.02324409 Eh     14.59 kcal/mol


-------------------
GIBBS FREE ENERGY
-------------------

The Gibbs free energy is G = H - T*S

Total enthalpy                    ...   -150.04510519 Eh 
Total entropy correction          ...     -0.02324409 Eh    -14.59 kcal/mol
-----------------------------------------------------------------------
Final Gibbs free energy         ...   -150.06834928 Eh

For completeness - the Gibbs free energy minus the electronic energy
G-E(el)                           ...     -0.01589659 Eh     -9.98 kcal/mol


Maximum memory used throughout the entire PROP-calculation: 8.0 MB

--------------------------------
SUGGESTED CITATIONS FOR THIS RUN
--------------------------------

Below you find a list of papers that are relevant to this ORCA run
We neither can nor want to force you to cite these papers, but we appreciate if you do
You receive ORCA, which is the product of decades of hard work by many enthusiastic individuals, for free
The only thing we kindly ask in return is that you cite our papers,
We deeply appreciate it, if you show your appreciation for ORCA by not just citing the generic ORCA reference.

Please note that relegating all ORCA citations to the supporting information does *not* help us.
SI sections are not indexed - citations you put there will not count into any citation statistics
But we need these citations in order to attract the funding resources that allow us to do what we are doing

Therefore, if you are a happy ORCA user, please consider citing a few of the papers listed below in the main body of your paper

In addition to the list printed below, the program has created the file o2-opt_orb.bibtex that contains the list in bibtex format
You can import this file easily into all common literature databanks and citation aid programs

It goes without saying that in many instances, there are alternative algorithms to achieve similar
results as the ones you have gotten from ORCA. It is, of course, also the case that in some instances
ORCA just re-implements algorithms worked out by others. We are fully aware of that and we are also
fully appreciative of our colleagues work. Hence this citation list should not be read as indicating
that the listed papers, which are focused on our own work, are the only ones worth citing. It simply
meant to make it easier for users to cite ORCA specific papers. It is not a substitute for doing your
own literature research and citing the relevant literature in a scientifically appropriate manner.

List of essential papers. We consider these as the minimum necessary citations

  1. Neese, F.
     Software update: the ORCA program system, version 6.0
     WIRES Comput. Molec. Sci. 2025 15(1), e70019
     doi.org/10.1002/wcms.70019

List of papers to cite with high priority. The work reported in these papers was absolutely
necessary for this run to complete.
Our perspective: the developers of density functionals and basis sets usually get cited in chemistry papers
Good! But without the algorithms to do something with them, the functionals or basis sets would not do anything.
Hence, in our opinion, the algorithm design and method developments papers are equally worthy of getting cited

  1. Neese, F.
     An improvement of the resolution of the identity approximation for the formation of the Coulomb matrix
     J. Comp. Chem. 2003 24(14), 1740-1747
     doi.org/10.1002/jcc.10318
  2. Neese, F.; Wennmohs, F.; Hansen, A.; Becker, U.
     Efficient, approximate and parallel Hartree-Fock and hybrid DFT calculations. A 'chain-of-spheres' algorithm for the Hartree-Fock exchange
     Chem. Phys. 2009 356(1-3), 98-109
     doi.org/10.1016/j.chemphys.2008.10.036
  3. Bykov, D.; Petrenko, T.; Izsak, R.; Kossmann, S.; Becker, U.; Valeev, E.; Neese, F.
     Efficient implementation of the analytic second derivatives of Hartree-Fock and hybrid DFT energies: a detailed analysis of different approximations
     Molec. Phys. 2015 113 , 1961-1977
     doi.org/10.1080/00268976.2015.1025114
  4. Helmich-Paris, B.; de Souza, B.; Neese, F.; Izsák, R.
     An improved chain of spheres for exchange algorithm
     J. Chem. Phys. 2021 155(10), 104109
     doi.org/10.1063/5.0058766
  5. Neese, F.
     The SHARK Integral Generation and Digestion System
     J. Comp. Chem. 2022 44(3), 381
     doi.org/10.1002/jcc.26942

List of suggested additional citations. These are papers that are important in the 'surrounding' of 
of this run, or papers that preceded the highly important papers. If you like your results we are grateful for a citation.

  1. Izsak, R.; Neese, F.
     An overlap fitted chain of spheres exchange method
     J. Chem. Phys. 2011 135 , 144105
     doi.org/10.1063/1.3646921
  2. Izsak, R.; Hansen, A.; Neese, F.
     The resolution of identity and chain of spheres approximations for the LPNO-CCSD singles Fock term
     Molec. Phys. 2012 110 , 2413-2417
     doi.org/10.1080/00268976.2012.687466
  3. Neese, F.
     The ORCA program system
     WIRES Comput. Molec. Sci. 2012 2(1), 73-78
     doi.org/10.1002/wcms.81
  4. Izsak, R.; Neese, F.; Klopper, W.
     Robust fitting techniques in the chain of spheres approximation to the Fock exchange: The role of the complementary space
     J. Chem. Phys. 2013 139 , 
     doi.org/10.1063/1.4819264
  5. Neese, F.
     Software update: the ORCA program system, version 4.0
     WIRES Comput. Molec. Sci. 2018 8(1), 1-6
     doi.org/10.1002/wcms.1327
  6. Neese, F.; Wennmohs, F.; Becker, U.; Riplinger, C.
     The ORCA quantum chemistry program package
     J. Chem. Phys. 2020 152(22), 224108
     doi.org/10.1063/5.0004608
  7. Neese, F.
     Software update: The ORCA program system—Version 5.0
     WIRES Comput. Molec. Sci. 2022 12(1), e1606
     doi.org/10.1002/wcms.1606

List of optional additional citations

  1. Neese, F.
     Approximate second-order SCF convergence for spin unrestricted wavefunctions
     Chem. Phys. Lett. 2000 325(1-3), 93-98
     doi.org/10.1016/s0009-2614(00)00662-x

Timings for individual modules:

Sum of individual times          ...       11.842 sec (=   0.197 min)
Startup calculation              ...        1.916 sec (=   0.032 min)  16.2 %
SCF iterations                   ...        4.591 sec (=   0.077 min)  38.8 %
Property integrals               ...        1.740 sec (=   0.029 min)  14.7 %
SCF Response                     ...        0.466 sec (=   0.008 min)   3.9 %
Property calculations            ...        1.210 sec (=   0.020 min)  10.2 %
SCF Gradient evaluation          ...        1.915 sec (=   0.032 min)  16.2 %
Geometry relaxation              ...        0.004 sec (=   0.000 min)   0.0 %
                             ****ORCA TERMINATED NORMALLY****
TOTAL RUN TIME: 0 days 0 hours 0 minutes 13 seconds 387 msec
